
     Program Q2R v.5.4.0 starts on 23Jan2018 at 15:45:40 

     This program is part of the open-source Quantum ESPRESSO suite
     for quantum simulation of materials; please cite
         "P. Giannozzi et al., J. Phys.:Condens. Matter 21 395502 (2009);
          URL http://www.quantum-espresso.org", 
     in publications or presentations arising from this work. More details at
     http://www.quantum-espresso.org/quote

     Parallel version (MPI), running on    20 processors
     R & G space division:  proc/nbgrp/npool/nimage =      20

     reading grid info from file alas.dyn0    
  reading force constants from file alas.dyn1
 macroscopic fields = T
  14.57173   0.00000   0.00000
   0.00000  14.57173   0.00000
   0.00000   0.00000  14.57173
  na=            1
   1.84336   0.00000   0.00000
   0.00000   1.84336   0.00000
   0.00000   0.00000   1.84336
  na=            2
  -3.29896   0.00000   0.00000
   0.00000  -3.29896   0.00000
   0.00000   0.00000  -3.29896
  nqs=            1
 q=   0.00000000  0.00000000  0.00000000
  reading force constants from file alas.dyn2
  nqs=            8
 q=  -0.25000000  0.25000000 -0.25000000
 q=   0.25000000 -0.25000000  0.25000000
 q=   0.25000000 -0.25000000 -0.25000000
 q=  -0.25000000  0.25000000  0.25000000
 q=  -0.25000000 -0.25000000  0.25000000
 q=   0.25000000  0.25000000 -0.25000000
 q=   0.25000000  0.25000000  0.25000000
 q=  -0.25000000 -0.25000000 -0.25000000
  reading force constants from file alas.dyn3
  nqs=            4
 q=   0.50000000 -0.50000000  0.50000000
 q=  -0.50000000  0.50000000  0.50000000
 q=   0.50000000  0.50000000 -0.50000000
 q=  -0.50000000 -0.50000000 -0.50000000
  reading force constants from file alas.dyn4
  nqs=            6
 q=   0.00000000  0.50000000  0.00000000
 q=   0.00000000 -0.50000000  0.00000000
 q=   0.00000000  0.00000000  0.50000000
 q=   0.00000000  0.00000000 -0.50000000
 q=   0.50000000  0.00000000  0.00000000
 q=  -0.50000000  0.00000000  0.00000000
  reading force constants from file alas.dyn5
  nqs=           24
 q=   0.75000000 -0.25000000  0.75000000
 q=  -0.75000000  0.25000000 -0.75000000
 q=  -0.75000000 -0.75000000 -0.25000000
 q=   0.75000000  0.75000000  0.25000000
 q=  -0.75000000  0.75000000  0.25000000
 q=   0.75000000 -0.75000000 -0.25000000
 q=  -0.75000000  0.25000000  0.75000000
 q=   0.75000000 -0.25000000 -0.75000000
 q=   0.75000000  0.25000000 -0.75000000
 q=  -0.75000000 -0.25000000  0.75000000
 q=   0.75000000  0.75000000 -0.25000000
 q=  -0.75000000 -0.75000000  0.25000000
 q=   0.75000000 -0.75000000  0.25000000
 q=  -0.75000000  0.75000000 -0.25000000
 q=  -0.25000000  0.75000000  0.75000000
 q=   0.25000000 -0.75000000 -0.75000000
 q=   0.25000000  0.75000000 -0.75000000
 q=  -0.25000000 -0.75000000  0.75000000
 q=  -0.25000000 -0.75000000 -0.75000000
 q=   0.25000000  0.75000000  0.75000000
 q=   0.25000000 -0.75000000  0.75000000
 q=  -0.25000000  0.75000000 -0.75000000
 q=  -0.75000000 -0.25000000 -0.75000000
 q=   0.75000000  0.25000000  0.75000000
  reading force constants from file alas.dyn6
  nqs=           12
 q=   0.50000000  0.00000000  0.50000000
 q=  -0.50000000 -0.50000000  0.00000000
 q=  -0.50000000  0.50000000  0.00000000
 q=  -0.50000000  0.00000000  0.50000000
 q=   0.50000000  0.00000000 -0.50000000
 q=   0.50000000  0.50000000  0.00000000
 q=   0.50000000 -0.50000000  0.00000000
 q=   0.00000000  0.50000000  0.50000000
 q=   0.00000000  0.50000000 -0.50000000
 q=   0.00000000 -0.50000000 -0.50000000
 q=   0.00000000 -0.50000000  0.50000000
 q=  -0.50000000  0.00000000 -0.50000000
  reading force constants from file alas.dyn7
  nqs=            3
 q=   0.00000000 -1.00000000  0.00000000
 q=   0.00000000  0.00000000 -1.00000000
 q=  -1.00000000  0.00000000  0.00000000
  reading force constants from file alas.dyn8
  nqs=            6
 q=  -0.50000000 -1.00000000  0.00000000
 q=   0.50000000  1.00000000  0.00000000
 q=   0.00000000 -1.00000000 -0.50000000
 q=   0.00000000  1.00000000  0.50000000
 q=   0.00000000 -0.50000000 -1.00000000
 q=   0.00000000  0.50000000  1.00000000

      q-space grid ok, #points =   64

      fft-check success (sum of imaginary terms < 10^-12)
 
     Q2R          :     0.03s CPU         0.15s WALL

 
   This run was terminated on:  15:45:40  23Jan2018            

=------------------------------------------------------------------------------=
   JOB DONE.
=------------------------------------------------------------------------------=
