
     Program PHONON v.5.4.0 starts on 23Jan2018 at 15:42:27 

     This program is part of the open-source Quantum ESPRESSO suite
     for quantum simulation of materials; please cite
         "P. Giannozzi et al., J. Phys.:Condens. Matter 21 395502 (2009);
          URL http://www.quantum-espresso.org", 
     in publications or presentations arising from this work. More details at
     http://www.quantum-espresso.org/quote

     Parallel version (MPI), running on    20 processors
     R & G space division:  proc/nbgrp/npool/nimage =      20

     Reading data from directory:
     ./tmp/1/alas.save

   Info: using nr1, nr2, nr3 values from input

   Info: using nr1, nr2, nr3 values from input

     IMPORTANT: XC functional enforced from input :
     Exchange-correlation      = LDA ( 1  1  0  0 0 0)
     Any further DFT definition will be discarded
     Please, verify this is what you really want

 
     Parallelization info
     --------------------
     sticks:   dense  smooth     PW     G-vecs:    dense   smooth      PW
     Min          12      12      4                  122      122      22
     Max          13      13      5                  125      125      24
     Sum         241     241     85                 2445     2445     459
 

     Check: negative/imaginary core charge=   -0.000006    0.000000


     Dynamical matrices for ( 4, 4, 4)  uniform grid of q-points
     (   8q-points):
       N         xq(1)         xq(2)         xq(3) 
       1   0.000000000   0.000000000   0.000000000
       2  -0.250000000   0.250000000  -0.250000000
       3   0.500000000  -0.500000000   0.500000000
       4   0.000000000   0.500000000   0.000000000
       5   0.750000000  -0.250000000   0.750000000
       6   0.500000000   0.000000000   0.500000000
       7   0.000000000  -1.000000000   0.000000000
       8  -0.500000000  -1.000000000   0.000000000

     Calculation of q =    0.0000000   0.0000000   0.0000000

                                                                                

     bravais-lattice index     =            2
     lattice parameter (alat)  =      10.5000  a.u.
     unit-cell volume          =     289.4062 (a.u.)^3
     number of atoms/cell      =            2
     number of atomic types    =            2
     kinetic-energy cut-off    =      16.0000  Ry
     charge density cut-off    =      64.0000  Ry
     convergence threshold     =      1.0E-12
     beta                      =       0.7000
     number of iterations used =            4
     Exchange-correlation      = LDA ( 1  1  0  0 0 0)


     celldm(1)=   10.50000  celldm(2)=    0.00000  celldm(3)=    0.00000
     celldm(4)=    0.00000  celldm(5)=    0.00000  celldm(6)=    0.00000

     crystal axes: (cart. coord. in units of alat)
               a(1) = ( -0.5000  0.0000  0.5000 )  
               a(2) = (  0.0000  0.5000  0.5000 )  
               a(3) = ( -0.5000  0.5000  0.0000 )  

     reciprocal axes: (cart. coord. in units 2 pi/alat)
               b(1) = ( -1.0000 -1.0000  1.0000 )  
               b(2) = (  1.0000  1.0000  1.0000 )  
               b(3) = ( -1.0000  1.0000 -1.0000 )  


     Atoms inside the unit cell: 

     Cartesian axes

     site n.  atom      mass           positions (alat units)
        1     Al  26.9800   tau(    1) = (    0.00000    0.00000    0.00000  )
        2     As  74.9200   tau(    2) = (    0.25000    0.25000    0.25000  )

     Computing dynamical matrix for 
                    q = (   0.0000000   0.0000000   0.0000000 )
 
     25 Sym.Ops. (with q -> -q+G )


     G cutoff =  178.7306  (    123 G-vectors)     FFT grid: ( 20, 20, 20)
     number of k points=     2

     PseudoPot. # 1 for Al read from file:
     /home/cgduan/fyw/vaspwork/BaPd2As2/I4mmm/pwscf-pbe/lambda/example/Al.pz-n-rrkjus_psl.1.0.0.UPF
     MD5 check sum: f5695b695079f854d95bbc9af2522990
     Pseudo is Ultrasoft + core correction, Zval =  3.0
     Generated using "atomic" code by A. Dal Corso  v.5.4.0
     Using radial grid of 1135 points,  6 beta functions with: 
                l(1) =   0
                l(2) =   0
                l(3) =   1
                l(4) =   1
                l(5) =   2
                l(6) =   2
     Q(r) pseudized with 0 coefficients 


     PseudoPot. # 2 for As read from file:
     /home/cgduan/fyw/vaspwork/BaPd2As2/I4mmm/pwscf-pbe/lambda/example/As.pz-n-rrkjus_psl.1.0.0.UPF
     MD5 check sum: c8743154813d3906a91a0b6d88773858
     Pseudo is Ultrasoft + core correction, Zval =  5.0
     Generated using "atomic" code by A. Dal Corso  v.5.4.0
     Using radial grid of 1209 points,  4 beta functions with: 
                l(1) =   0
                l(2) =   0
                l(3) =   1
                l(4) =   1
     Q(r) pseudized with 0 coefficients 


     Mode symmetry, T_d (-43m)  point group:


     Electric field:
     Dielectric constant
     Born effective charges in two ways 


     Atomic displacements:
     There are   2 irreducible representations

     Representation     1      3 modes -T_2  G_15 P_4  To be done

     Representation     2      3 modes -T_2  G_15 P_4  To be done



     Alpha used in Ewald sum =   0.7000
     PHONON       :     3.20s CPU        10.37s WALL


     Electric Fields Calculation

      iter #   1 total cpu time :    11.4 secs   av.it.:   6.0
      thresh= 1.000E-02 alpha_mix =  0.700 |ddv_scf|^2 =  1.314E-06

      iter #   2 total cpu time :    12.0 secs   av.it.:   9.5
      thresh= 1.146E-04 alpha_mix =  0.700 |ddv_scf|^2 =  7.009E-08

      iter #   3 total cpu time :    12.3 secs   av.it.:   9.7
      thresh= 2.647E-05 alpha_mix =  0.700 |ddv_scf|^2 =  9.589E-10

      iter #   4 total cpu time :    12.4 secs   av.it.:   9.8
      thresh= 3.097E-06 alpha_mix =  0.700 |ddv_scf|^2 =  7.570E-12

      iter #   5 total cpu time :    12.8 secs   av.it.:   9.0
      thresh= 2.751E-07 alpha_mix =  0.700 |ddv_scf|^2 =  2.675E-14

     End of electric fields calculation

          Dielectric constant in cartesian axis 

          (      14.571725034      -0.000000000       0.000000000 )
          (      -0.000000000      14.571725034       0.000000000 )
          (       0.000000000       0.000000000      14.571725034 )

          Effective charges (d Force / dE) in cartesian axis

           atom      1   Al 
      Ex  (        1.84336       -0.00000       -0.00000 )
      Ey  (       -0.00000        1.84336        0.00000 )
      Ez  (       -0.00000        0.00000        1.84336 )
           atom      2   As 
      Ex  (       -3.29896       -0.00000       -0.00000 )
      Ey  (       -0.00000       -3.29896       -0.00000 )
      Ez  (        0.00000       -0.00000       -3.29896 )


     Representation #  1 modes #   1  2  3

     Self-consistent Calculation

      iter #   1 total cpu time :    14.1 secs   av.it.:   6.0
      thresh= 1.000E-02 alpha_mix =  0.700 |ddv_scf|^2 =  2.770E-07

      iter #   2 total cpu time :    14.9 secs   av.it.:   9.8
      thresh= 5.263E-05 alpha_mix =  0.700 |ddv_scf|^2 =  1.189E-08

      iter #   3 total cpu time :    15.3 secs   av.it.:  10.3
      thresh= 1.090E-05 alpha_mix =  0.700 |ddv_scf|^2 =  8.434E-10

      iter #   4 total cpu time :    15.7 secs   av.it.:  10.0
      thresh= 2.904E-06 alpha_mix =  0.700 |ddv_scf|^2 =  3.102E-12

      iter #   5 total cpu time :    17.0 secs   av.it.:  10.2
      thresh= 1.761E-07 alpha_mix =  0.700 |ddv_scf|^2 =  5.399E-14

     End of self-consistent calculation

     Convergence has been achieved 


     Representation #  2 modes #   4  5  6

     Self-consistent Calculation

      iter #   1 total cpu time :    19.0 secs   av.it.:   4.8
      thresh= 1.000E-02 alpha_mix =  0.700 |ddv_scf|^2 =  2.419E-08

      iter #   2 total cpu time :    21.0 secs   av.it.:  10.2
      thresh= 1.555E-05 alpha_mix =  0.700 |ddv_scf|^2 =  1.436E-09

      iter #   3 total cpu time :    21.8 secs   av.it.:   9.5
      thresh= 3.790E-06 alpha_mix =  0.700 |ddv_scf|^2 =  4.804E-11

      iter #   4 total cpu time :    22.0 secs   av.it.:  10.2
      thresh= 6.931E-07 alpha_mix =  0.700 |ddv_scf|^2 =  8.701E-13

     End of self-consistent calculation

     Convergence has been achieved 
 
     Number of q in the star =    1
     List of q in the star:
          1   0.000000000   0.000000000   0.000000000

          Dielectric constant in cartesian axis 

          (      14.571725034      -0.000000000       0.000000000 )
          (      -0.000000000      14.571725034       0.000000000 )
          (       0.000000000       0.000000000      14.571725034 )

          Effective charges (d Force / dE) in cartesian axis

           atom      1   Al 
      Ex  (        1.84336       -0.00000       -0.00000 )
      Ey  (       -0.00000        1.84336        0.00000 )
      Ez  (       -0.00000        0.00000        1.84336 )
           atom      2   As 
      Ex  (       -3.29896       -0.00000       -0.00000 )
      Ey  (       -0.00000       -3.29896       -0.00000 )
      Ez  (        0.00000       -0.00000       -3.29896 )

          Effective charges (d P / du) in cartesian axis 

           atom      1   Al 
      Px  (        1.84130        0.00000        0.00000 )
      Py  (        0.00000        1.84130       -0.00000 )
      Pz  (        0.00000       -0.00000        1.84130 )
           atom      2   As 
      Px  (       -3.29765        0.00000       -0.00000 )
      Py  (        0.00000       -3.29765       -0.00000 )
      Pz  (        0.00000        0.00000       -3.29765 )

     Diagonalizing the dynamical matrix

     q = (    0.000000000   0.000000000   0.000000000 ) 

 **************************************************************************
     freq (    1) =      -0.426471 [THz] =     -14.225545 [cm-1]
     freq (    2) =      -0.426471 [THz] =     -14.225545 [cm-1]
     freq (    3) =      -0.426471 [THz] =     -14.225545 [cm-1]
     freq (    4) =      11.364234 [THz] =     379.070054 [cm-1]
     freq (    5) =      11.364234 [THz] =     379.070054 [cm-1]
     freq (    6) =      11.364234 [THz] =     379.070054 [cm-1]
 **************************************************************************

     Mode symmetry, T_d (-43m)  point group:

     freq (  1 -  3) =        -14.2  [cm-1]   --> T_2  G_15 P_4   I+R
     freq (  4 -  6) =        379.1  [cm-1]   --> T_2  G_15 P_4   I+R
 
     PHONON       :     8.80s CPU        22.90s WALL

     INITIALIZATION: 
     phq_setup    :      0.00s CPU      0.11s WALL (       1 calls)
     phq_init     :      2.12s CPU      3.12s WALL (       1 calls)
 
     phq_init     :      2.12s CPU      3.12s WALL (       1 calls)
     set_drhoc    :      0.01s CPU      0.01s WALL (       3 calls)
     init_vloc    :      0.00s CPU      0.00s WALL (       1 calls)
     init_us_1    :      0.04s CPU      0.18s WALL (       1 calls)
     newd         :      0.00s CPU      0.00s WALL (       1 calls)
     dvanqq       :      0.00s CPU      0.00s WALL (       1 calls)
     drho         :      0.00s CPU      0.01s WALL (       1 calls)
     cmpt_qdipol  :      0.00s CPU      0.00s WALL (       1 calls)
 
     DIELECTRIC CONSTANT AND EFFECTIVE CHARGES:
     solve_e      :      1.71s CPU      2.69s WALL (       1 calls)
     dielec       :      0.00s CPU      0.01s WALL (       1 calls)
     zstar_eu     :      0.04s CPU      0.05s WALL (       1 calls)
 
     DYNAMICAL MATRIX:
     dynmat0      :      0.01s CPU      0.52s WALL (       1 calls)
     phqscf       :      3.80s CPU      9.34s WALL (       1 calls)
     dynmatrix    :      0.00s CPU      0.19s WALL (       1 calls)
 
     phqscf       :      3.80s CPU      9.34s WALL (       1 calls)
     solve_linter :      3.78s CPU      8.85s WALL (       2 calls)
     drhodv       :      0.00s CPU      0.00s WALL (       2 calls)
     add_zstar_ue :      0.00s CPU      0.00s WALL (       2 calls)
     add_zstar_us :      0.01s CPU      0.01s WALL (       2 calls)
 
     dynmat0      :      0.01s CPU      0.52s WALL (       1 calls)
     dynmat_us    :      0.00s CPU      0.00s WALL (       1 calls)
     d2ionq       :      0.00s CPU      0.00s WALL (       1 calls)
     dynmatcc     :      0.01s CPU      0.01s WALL (       1 calls)
 
     dynmat_us    :      0.00s CPU      0.00s WALL (       1 calls)
     addusdynmat  :      0.00s CPU      0.00s WALL (       1 calls)
 
     phqscf       :      3.80s CPU      9.34s WALL (       1 calls)
     solve_linter :      3.78s CPU      8.85s WALL (       2 calls)
 
     solve_linter :      3.78s CPU      8.85s WALL (       2 calls)
     dvqpsi_us    :      0.14s CPU      0.18s WALL (      24 calls)
     ortho        :      0.00s CPU      0.01s WALL (      90 calls)
     cgsolve      :      0.32s CPU      0.38s WALL (      90 calls)
     incdrhoscf   :      0.02s CPU      0.03s WALL (      90 calls)
     addusddens   :      0.00s CPU      0.01s WALL (      11 calls)
     vpsifft      :      0.01s CPU      0.01s WALL (      42 calls)
     dv_of_drho   :      0.00s CPU      0.01s WALL (      45 calls)
     mix_pot      :      0.27s CPU      2.71s WALL (      14 calls)
     psymdvscf    :      0.13s CPU      0.13s WALL (       9 calls)
     newdq        :      0.84s CPU      1.02s WALL (      14 calls)
     adddvscf     :      0.00s CPU      0.00s WALL (      66 calls)
     drhodvus     :      0.00s CPU      0.00s WALL (       2 calls)
 
     dvqpsi_us    :      0.14s CPU      0.18s WALL (      24 calls)
     dvqpsi_us_on :      0.01s CPU      0.00s WALL (      24 calls)
 
     cgsolve      :      0.32s CPU      0.38s WALL (      90 calls)
     ch_psi       :      0.29s CPU      0.34s WALL (     992 calls)
 
     ch_psi       :      0.29s CPU      0.34s WALL (     992 calls)
     h_psiq       :      0.25s CPU      0.28s WALL (     992 calls)
     last         :      0.04s CPU      0.05s WALL (     992 calls)
 
     h_psiq       :      0.25s CPU      0.28s WALL (     992 calls)
     firstfft     :      0.10s CPU      0.11s WALL (    3552 calls)
     secondfft    :      0.10s CPU      0.11s WALL (    3552 calls)
     add_vuspsi   :      0.01s CPU      0.01s WALL (     992 calls)
 
     incdrhoscf   :      0.02s CPU      0.03s WALL (      90 calls)
     addusdbec    :      0.00s CPU      0.00s WALL (     102 calls)
 
     drhodvus     :      0.00s CPU      0.00s WALL (       2 calls)
 
      General routines
     calbec       :      2.13s CPU      2.64s WALL (    2832 calls)
     fft          :      0.83s CPU      1.43s WALL (     323 calls)
     ffts         :      0.13s CPU      0.17s WALL (      42 calls)
     fftw         :      0.23s CPU      0.26s WALL (    8600 calls)
     davcio       :      0.00s CPU      0.02s WALL (     683 calls)
     write_rec    :      0.02s CPU      2.05s WALL (      16 calls)
 
 
     PHONON       :     8.80s CPU        22.91s WALL

 
   This run was terminated on:  15:42:50  23Jan2018            

=------------------------------------------------------------------------------=
   JOB DONE.
=------------------------------------------------------------------------------=
