
     Program PHONON v.5.4.0 starts on 23Jan2018 at 15:43: 0 

     This program is part of the open-source Quantum ESPRESSO suite
     for quantum simulation of materials; please cite
         "P. Giannozzi et al., J. Phys.:Condens. Matter 21 395502 (2009);
          URL http://www.quantum-espresso.org", 
     in publications or presentations arising from this work. More details at
     http://www.quantum-espresso.org/quote

     Parallel version (MPI), running on    20 processors
     R & G space division:  proc/nbgrp/npool/nimage =      20

     Reading data from directory:
     ./tmp/2/alas.save

   Info: using nr1, nr2, nr3 values from input

   Info: using nr1, nr2, nr3 values from input

     IMPORTANT: XC functional enforced from input :
     Exchange-correlation      = LDA ( 1  1  0  0 0 0)
     Any further DFT definition will be discarded
     Please, verify this is what you really want

 
     Parallelization info
     --------------------
     sticks:   dense  smooth     PW     G-vecs:    dense   smooth      PW
     Min          12      12      4                  122      122      22
     Max          13      13      5                  125      125      24
     Sum         241     241     85                 2445     2445     459
 

     Check: negative/imaginary core charge=   -0.000006    0.000000


     Dynamical matrices for ( 4, 4, 4)  uniform grid of q-points
     (   8q-points):
       N         xq(1)         xq(2)         xq(3) 
       1   0.000000000   0.000000000   0.000000000
       2  -0.250000000   0.250000000  -0.250000000
       3   0.500000000  -0.500000000   0.500000000
       4   0.000000000   0.500000000   0.000000000
       5   0.750000000  -0.250000000   0.750000000
       6   0.500000000   0.000000000   0.500000000
       7   0.000000000  -1.000000000   0.000000000
       8  -0.500000000  -1.000000000   0.000000000

     Calculation of q =   -0.2500000   0.2500000  -0.2500000
 
     Parallelization info
     --------------------
     sticks:   dense  smooth     PW     G-vecs:    dense   smooth      PW
     Min          12      12      4                  122      122      26
     Max          13      13      5                  125      125      29
     Sum         241     241     85                 2445     2445     531
 


     bravais-lattice index     =            2
     lattice parameter (alat)  =      10.5000  a.u.
     unit-cell volume          =     289.4062 (a.u.)^3
     number of atoms/cell      =            2
     number of atomic types    =            2
     number of electrons       =         8.00
     number of Kohn-Sham states=            4
     kinetic-energy cutoff     =      16.0000  Ry
     charge density cutoff     =      64.0000  Ry
     Exchange-correlation      = LDA ( 1  1  0  0 0 0)

     celldm(1)=  10.500000  celldm(2)=   0.000000  celldm(3)=   0.000000
     celldm(4)=   0.000000  celldm(5)=   0.000000  celldm(6)=   0.000000

     crystal axes: (cart. coord. in units of alat)
               a(1) = (  -0.500000   0.000000   0.500000 )  
               a(2) = (   0.000000   0.500000   0.500000 )  
               a(3) = (  -0.500000   0.500000   0.000000 )  

     reciprocal axes: (cart. coord. in units 2 pi/alat)
               b(1) = ( -1.000000 -1.000000  1.000000 )  
               b(2) = (  1.000000  1.000000  1.000000 )  
               b(3) = ( -1.000000  1.000000 -1.000000 )  


     PseudoPot. # 1 for Al read from file:
     /home/cgduan/fyw/vaspwork/BaPd2As2/I4mmm/pwscf-pbe/lambda/example/Al.pz-n-rrkjus_psl.1.0.0.UPF
     MD5 check sum: f5695b695079f854d95bbc9af2522990
     Pseudo is Ultrasoft + core correction, Zval =  3.0
     Generated using "atomic" code by A. Dal Corso  v.5.4.0
     Using radial grid of 1135 points,  6 beta functions with: 
                l(1) =   0
                l(2) =   0
                l(3) =   1
                l(4) =   1
                l(5) =   2
                l(6) =   2
     Q(r) pseudized with 0 coefficients 


     PseudoPot. # 2 for As read from file:
     /home/cgduan/fyw/vaspwork/BaPd2As2/I4mmm/pwscf-pbe/lambda/example/As.pz-n-rrkjus_psl.1.0.0.UPF
     MD5 check sum: c8743154813d3906a91a0b6d88773858
     Pseudo is Ultrasoft + core correction, Zval =  5.0
     Generated using "atomic" code by A. Dal Corso  v.5.4.0
     Using radial grid of 1209 points,  4 beta functions with: 
                l(1) =   0
                l(2) =   0
                l(3) =   1
                l(4) =   1
     Q(r) pseudized with 0 coefficients 


     atomic species   valence    mass     pseudopotential
        Al             3.00    26.98000     Al( 1.00)
        As             5.00    74.92000     As( 1.00)

     24 Sym. Ops. (no inversion) found



   Cartesian axes

     site n.     atom                  positions (alat units)
         1           Al  tau(   1) = (   0.0000000   0.0000000   0.0000000  )
         2           As  tau(   2) = (   0.2500000   0.2500000   0.2500000  )

     number of k points=    20
                       cart. coord. in units 2pi/alat
        k(    1) = (   0.2500000   0.2500000   0.2500000), wk =   0.1875000
        k(    2) = (   0.0000000   0.5000000   0.0000000), wk =   0.0000000
        k(    3) = (   0.2500000   0.2500000   0.7500000), wk =   0.3750000
        k(    4) = (   0.0000000   0.5000000   0.5000000), wk =   0.0000000
        k(    5) = (  -0.2500000   0.2500000  -0.2500000), wk =   0.0625000
        k(    6) = (  -0.5000000   0.5000000  -0.5000000), wk =   0.0000000
        k(    7) = (  -0.2500000  -0.2500000  -0.2500000), wk =   0.1875000
        k(    8) = (  -0.5000000   0.0000000  -0.5000000), wk =   0.0000000
        k(    9) = (   0.2500000  -0.2500000   0.2500000), wk =   0.0625000
        k(   10) = (   0.0000000   0.0000000   0.0000000), wk =   0.0000000
        k(   11) = (  -0.7500000  -0.2500000   0.2500000), wk =   0.1875000
        k(   12) = (  -1.0000000   0.0000000   0.0000000), wk =   0.0000000
        k(   13) = (  -0.7500000   0.2500000  -0.2500000), wk =   0.1875000
        k(   14) = (  -1.0000000   0.5000000  -0.5000000), wk =   0.0000000
        k(   15) = (  -0.2500000  -0.2500000  -0.7500000), wk =   0.3750000
        k(   16) = (  -0.5000000   0.0000000  -1.0000000), wk =   0.0000000
        k(   17) = (   0.2500000  -0.2500000   0.7500000), wk =   0.1875000
        k(   18) = (   0.0000000   0.0000000   0.5000000), wk =   0.0000000
        k(   19) = (  -0.2500000   0.2500000   0.7500000), wk =   0.1875000
        k(   20) = (  -0.5000000   0.5000000   0.5000000), wk =   0.0000000

     Dense  grid:     2445 G-vectors     FFT dimensions: (  20,  20,  20)

     Largest allocated arrays     est. size (Mb)     dimensions
        Kohn-Sham Wavefunctions         0.00 Mb     (      17,    4)
        NL pseudopotentials             0.01 Mb     (      17,   26)
        Each V/rho on FFT grid          0.01 Mb     (     400)
        Each G-vector array             0.00 Mb     (     123)
        G-vector shells                 0.00 Mb     (      53)
     Largest temporary arrays     est. size (Mb)     dimensions
        Auxiliary wavefunctions         0.00 Mb     (      17,   16)
        Each subspace H/S matrix        0.00 Mb     (       5,    5)
        Each <psi_i|beta_j> matrix      0.00 Mb     (      26,    4)

     Check: negative/imaginary core charge=   -0.000006    0.000000

     The potential is recalculated from file :
     ./tmp/2/_ph0/alas.save/charge-density.dat

     Starting wfc are    8 atomic wfcs

     Band Structure Calculation
     Davidson diagonalization with overlap

     ethr =  1.25E-10,  avg # of iterations = 10.5

     total cpu time spent up to now is        0.3 secs

     End of band structure calculation

          k = 0.2500 0.2500 0.2500 (   311 PWs)   bands (ev):

    -6.4109   1.6676   4.7023   4.7023

          k = 0.0000 0.5000 0.0000 (   311 PWs)   bands (ev):

    -6.1966   1.9061   3.7697   3.7697

          k = 0.2500 0.2500 0.7500 (   311 PWs)   bands (ev):

    -5.2348  -0.0673   2.2816   3.4865

          k = 0.0000 0.5000 0.5000 (   315 PWs)   bands (ev):

    -5.5795   0.4698   2.1202   4.2563

          k =-0.2500 0.2500-0.2500 (   311 PWs)   bands (ev):

    -6.4109   1.6676   4.7023   4.7023

          k =-0.5000 0.5000-0.5000 (   302 PWs)   bands (ev):

    -5.4826  -0.6690   4.3426   4.3426

          k =-0.2500-0.2500-0.2500 (   311 PWs)   bands (ev):

    -6.4109   1.6676   4.7023   4.7023

          k =-0.5000 0.0000-0.5000 (   315 PWs)   bands (ev):

    -5.5795   0.4698   2.1202   4.2563

          k = 0.2500-0.2500 0.2500 (   311 PWs)   bands (ev):

    -6.4109   1.6676   4.7023   4.7023

          k = 0.0000 0.0000 0.0000 (   331 PWs)   bands (ev):

    -7.0321   5.2086   5.2086   5.2086

          k =-0.7500-0.2500 0.2500 (   311 PWs)   bands (ev):

    -5.2348  -0.0673   2.2816   3.4865

          k =-1.0000 0.0000 0.0000 (   302 PWs)   bands (ev):

    -4.8810  -0.4647   2.8931   2.8931

          k =-0.7500 0.2500-0.2500 (   311 PWs)   bands (ev):

    -5.2348  -0.0673   2.2816   3.4865

          k =-1.0000 0.5000-0.5000 (   315 PWs)   bands (ev):

    -5.5795   0.4698   2.1202   4.2563

          k =-0.2500-0.2500-0.7500 (   311 PWs)   bands (ev):

    -5.2348  -0.0673   2.2816   3.4865

          k =-0.5000 0.0000-1.0000 (   308 PWs)   bands (ev):

    -4.8417  -0.0750   1.7727   2.1500

          k = 0.2500-0.2500 0.7500 (   311 PWs)   bands (ev):

    -5.2348  -0.0673   2.2816   3.4865

          k = 0.0000 0.0000 0.5000 (   311 PWs)   bands (ev):

    -6.1966   1.9061   3.7697   3.7697

          k =-0.2500 0.2500 0.7500 (   311 PWs)   bands (ev):

    -5.2348  -0.0673   2.2816   3.4865

          k =-0.5000 0.5000 0.5000 (   302 PWs)   bands (ev):

    -5.4826  -0.6690   4.3426   4.3426

     highest occupied level (ev):     5.2086

     Writing output data file alas.save

                                                                                

     bravais-lattice index     =            2
     lattice parameter (alat)  =      10.5000  a.u.
     unit-cell volume          =     289.4062 (a.u.)^3
     number of atoms/cell      =            2
     number of atomic types    =            2
     kinetic-energy cut-off    =      16.0000  Ry
     charge density cut-off    =      64.0000  Ry
     convergence threshold     =      1.0E-12
     beta                      =       0.7000
     number of iterations used =            4
     Exchange-correlation      = LDA ( 1  1  0  0 0 0)


     celldm(1)=   10.50000  celldm(2)=    0.00000  celldm(3)=    0.00000
     celldm(4)=    0.00000  celldm(5)=    0.00000  celldm(6)=    0.00000

     crystal axes: (cart. coord. in units of alat)
               a(1) = ( -0.5000  0.0000  0.5000 )  
               a(2) = (  0.0000  0.5000  0.5000 )  
               a(3) = ( -0.5000  0.5000  0.0000 )  

     reciprocal axes: (cart. coord. in units 2 pi/alat)
               b(1) = ( -1.0000 -1.0000  1.0000 )  
               b(2) = (  1.0000  1.0000  1.0000 )  
               b(3) = ( -1.0000  1.0000 -1.0000 )  


     Atoms inside the unit cell: 

     Cartesian axes

     site n.  atom      mass           positions (alat units)
        1     Al  26.9800   tau(    1) = (    0.00000    0.00000    0.00000  )
        2     As  74.9200   tau(    2) = (    0.25000    0.25000    0.25000  )

     Computing dynamical matrix for 
                    q = (  -0.2500000   0.2500000  -0.2500000 )
 
      6 Sym.Ops. (no q -> -q+G )


     G cutoff =  178.7306  (    123 G-vectors)     FFT grid: ( 20, 20, 20)
     number of k points=    20

     PseudoPot. # 1 for Al read from file:
     /home/cgduan/fyw/vaspwork/BaPd2As2/I4mmm/pwscf-pbe/lambda/example/Al.pz-n-rrkjus_psl.1.0.0.UPF
     MD5 check sum: f5695b695079f854d95bbc9af2522990
     Pseudo is Ultrasoft + core correction, Zval =  3.0
     Generated using "atomic" code by A. Dal Corso  v.5.4.0
     Using radial grid of 1135 points,  6 beta functions with: 
                l(1) =   0
                l(2) =   0
                l(3) =   1
                l(4) =   1
                l(5) =   2
                l(6) =   2
     Q(r) pseudized with 0 coefficients 


     PseudoPot. # 2 for As read from file:
     /home/cgduan/fyw/vaspwork/BaPd2As2/I4mmm/pwscf-pbe/lambda/example/As.pz-n-rrkjus_psl.1.0.0.UPF
     MD5 check sum: c8743154813d3906a91a0b6d88773858
     Pseudo is Ultrasoft + core correction, Zval =  5.0
     Generated using "atomic" code by A. Dal Corso  v.5.4.0
     Using radial grid of 1209 points,  4 beta functions with: 
                l(1) =   0
                l(2) =   0
                l(3) =   1
                l(4) =   1
     Q(r) pseudized with 0 coefficients 


     Mode symmetry, C_3v (3m)   point group:


     Atomic displacements:
     There are   4 irreducible representations

     Representation     1      1 modes -A_1  L_1  To be done

     Representation     2      1 modes -A_1  L_1  To be done

     Representation     3      2 modes -E    L_3  To be done

     Representation     4      2 modes -E    L_3  To be done



     Alpha used in Ewald sum =   0.7000
     PHONON       :     1.55s CPU         9.68s WALL



     Representation #  1 mode #   1

     Self-consistent Calculation

      iter #   1 total cpu time :    10.9 secs   av.it.:   6.1
      thresh= 1.000E-02 alpha_mix =  0.700 |ddv_scf|^2 =  3.060E-03

      iter #   2 total cpu time :    13.1 secs   av.it.:   7.5
      thresh= 5.532E-03 alpha_mix =  0.700 |ddv_scf|^2 =  2.975E-02

      iter #   3 total cpu time :    13.7 secs   av.it.:   6.7
      thresh= 1.000E-02 alpha_mix =  0.700 |ddv_scf|^2 =  3.900E-06

      iter #   4 total cpu time :    14.7 secs   av.it.:   7.5
      thresh= 1.975E-04 alpha_mix =  0.700 |ddv_scf|^2 =  5.211E-08

      iter #   5 total cpu time :    15.0 secs   av.it.:   8.3
      thresh= 2.283E-05 alpha_mix =  0.700 |ddv_scf|^2 =  2.763E-08

      iter #   6 total cpu time :    15.1 secs   av.it.:   7.1
      thresh= 1.662E-05 alpha_mix =  0.700 |ddv_scf|^2 =  2.018E-08

      iter #   7 total cpu time :    15.2 secs   av.it.:   7.2
      thresh= 1.421E-05 alpha_mix =  0.700 |ddv_scf|^2 =  2.033E-11

      iter #   8 total cpu time :    15.8 secs   av.it.:   7.8
      thresh= 4.508E-07 alpha_mix =  0.700 |ddv_scf|^2 =  1.846E-12

      iter #   9 total cpu time :    17.1 secs   av.it.:   7.4
      thresh= 1.359E-07 alpha_mix =  0.700 |ddv_scf|^2 =  3.123E-13

     End of self-consistent calculation

     Convergence has been achieved 


     Representation #  2 mode #   2

     Self-consistent Calculation

      iter #   1 total cpu time :    18.9 secs   av.it.:   5.3
      thresh= 1.000E-02 alpha_mix =  0.700 |ddv_scf|^2 =  6.682E-04

      iter #   2 total cpu time :    19.7 secs   av.it.:   7.5
      thresh= 2.585E-03 alpha_mix =  0.700 |ddv_scf|^2 =  6.237E-03

      iter #   3 total cpu time :    20.7 secs   av.it.:   6.1
      thresh= 7.898E-03 alpha_mix =  0.700 |ddv_scf|^2 =  1.713E-07

      iter #   4 total cpu time :    21.2 secs   av.it.:   8.3
      thresh= 4.139E-05 alpha_mix =  0.700 |ddv_scf|^2 =  1.373E-08

      iter #   5 total cpu time :    21.4 secs   av.it.:   8.2
      thresh= 1.172E-05 alpha_mix =  0.700 |ddv_scf|^2 =  1.352E-09

      iter #   6 total cpu time :    21.9 secs   av.it.:   7.7
      thresh= 3.677E-06 alpha_mix =  0.700 |ddv_scf|^2 =  4.188E-09

      iter #   7 total cpu time :    22.0 secs   av.it.:   6.9
      thresh= 6.471E-06 alpha_mix =  0.700 |ddv_scf|^2 =  3.275E-11

      iter #   8 total cpu time :    22.1 secs   av.it.:   7.7
      thresh= 5.723E-07 alpha_mix =  0.700 |ddv_scf|^2 =  3.381E-13

     End of self-consistent calculation

     Convergence has been achieved 


     Representation #  3 modes #   3  4

     Self-consistent Calculation

      iter #   1 total cpu time :    23.2 secs   av.it.:   5.7
      thresh= 1.000E-02 alpha_mix =  0.700 |ddv_scf|^2 =  8.076E-07

      iter #   2 total cpu time :    24.0 secs   av.it.:   9.1
      thresh= 8.987E-05 alpha_mix =  0.700 |ddv_scf|^2 =  4.300E-08

      iter #   3 total cpu time :    26.0 secs   av.it.:   9.2
      thresh= 2.074E-05 alpha_mix =  0.700 |ddv_scf|^2 =  2.454E-09

      iter #   4 total cpu time :    28.0 secs   av.it.:   9.3
      thresh= 4.954E-06 alpha_mix =  0.700 |ddv_scf|^2 =  9.036E-12

      iter #   5 total cpu time :    28.8 secs   av.it.:   9.3
      thresh= 3.006E-07 alpha_mix =  0.700 |ddv_scf|^2 =  2.301E-13

     End of self-consistent calculation

     Convergence has been achieved 


     Representation #  4 modes #   5  6

     Self-consistent Calculation

      iter #   1 total cpu time :    31.6 secs   av.it.:   5.0
      thresh= 1.000E-02 alpha_mix =  0.700 |ddv_scf|^2 =  8.495E-08

      iter #   2 total cpu time :    31.9 secs   av.it.:   9.3
      thresh= 2.915E-05 alpha_mix =  0.700 |ddv_scf|^2 =  5.983E-09

      iter #   3 total cpu time :    32.1 secs   av.it.:   9.3
      thresh= 7.735E-06 alpha_mix =  0.700 |ddv_scf|^2 =  4.249E-10

      iter #   4 total cpu time :    32.2 secs   av.it.:   9.2
      thresh= 2.061E-06 alpha_mix =  0.700 |ddv_scf|^2 =  1.808E-12

      iter #   5 total cpu time :    32.6 secs   av.it.:   9.4
      thresh= 1.345E-07 alpha_mix =  0.700 |ddv_scf|^2 =  4.023E-14

     End of self-consistent calculation

     Convergence has been achieved 
 
     Number of q in the star =    4
     List of q in the star:
          1  -0.250000000   0.250000000  -0.250000000
          2   0.250000000  -0.250000000  -0.250000000
          3  -0.250000000  -0.250000000   0.250000000
          4   0.250000000   0.250000000   0.250000000
     In addition there is the -q list: 
          1   0.250000000  -0.250000000   0.250000000
          2  -0.250000000   0.250000000   0.250000000
          3   0.250000000   0.250000000  -0.250000000
          4  -0.250000000  -0.250000000  -0.250000000

     Diagonalizing the dynamical matrix

     q = (   -0.250000000   0.250000000  -0.250000000 ) 

 **************************************************************************
     freq (    1) =       1.664832 [THz] =      55.532808 [cm-1]
     freq (    2) =       1.664832 [THz] =      55.532808 [cm-1]
     freq (    3) =       4.553779 [THz] =     151.897719 [cm-1]
     freq (    4) =      11.111230 [THz] =     370.630731 [cm-1]
     freq (    5) =      11.111230 [THz] =     370.630731 [cm-1]
     freq (    6) =      12.201418 [THz] =     406.995489 [cm-1]
 **************************************************************************

     Mode symmetry, C_3v (3m)   point group:

     freq (  1 -  2) =         55.5  [cm-1]   --> E    L_3           
     freq (  3 -  3) =        151.9  [cm-1]   --> A_1  L_1           
     freq (  4 -  5) =        370.6  [cm-1]   --> E    L_3           
     freq (  6 -  6) =        407.0  [cm-1]   --> A_1  L_1           
 
     init_run     :      0.04s CPU      0.04s WALL (       1 calls)
     electrons    :      0.17s CPU      0.23s WALL (       1 calls)

     Called by init_run:
     wfcinit      :      0.00s CPU      0.00s WALL (       1 calls)
     potinit      :      0.00s CPU      0.00s WALL (       1 calls)

     Called by electrons:
     c_bands      :      0.17s CPU      0.23s WALL (       1 calls)
     v_of_rho     :      0.00s CPU      0.00s WALL (       2 calls)
     newd         :      0.00s CPU      0.00s WALL (       2 calls)

     Called by c_bands:
     init_us_2    :      0.01s CPU      0.01s WALL (     370 calls)
     cegterg      :      0.09s CPU      0.11s WALL (      20 calls)

     Called by sum_band:

     Called by *egterg:
     h_psi        :      0.13s CPU      0.15s WALL (     250 calls)
     s_psi        :      0.06s CPU      0.05s WALL (    7582 calls)
     g_psi        :      0.00s CPU      0.00s WALL (     210 calls)
     cdiaghg      :      0.02s CPU      0.02s WALL (     230 calls)

     Called by h_psi:
     add_vuspsi   :      0.02s CPU      0.03s WALL (    3731 calls)

     General routines
     calbec       :      0.25s CPU      0.36s WALL (    8392 calls)
     fft          :      0.01s CPU      0.10s WALL (     283 calls)
     ffts         :      0.17s CPU      0.23s WALL (      90 calls)
     fftw         :      1.26s CPU      1.47s WALL (   32788 calls)
     davcio       :      0.01s CPU      0.05s WALL (    1985 calls)
 
     Parallel routines
     fft_scatter  :      1.14s CPU      1.39s WALL (   33161 calls)
 
     PHONON       :     9.88s CPU        35.55s WALL

     INITIALIZATION: 
     phq_setup    :      0.01s CPU      0.99s WALL (       1 calls)
     phq_init     :      0.17s CPU      0.24s WALL (       1 calls)
 
     phq_init     :      0.17s CPU      0.24s WALL (       1 calls)
     set_drhoc    :      0.01s CPU      0.01s WALL (       3 calls)
     init_vloc    :      0.00s CPU      0.00s WALL (       2 calls)
     init_us_1    :      0.06s CPU      0.09s WALL (       2 calls)
     newd         :      0.00s CPU      0.00s WALL (       2 calls)
     dvanqq       :      0.00s CPU      0.00s WALL (       1 calls)
     drho         :      0.01s CPU      0.02s WALL (       1 calls)
 
     DYNAMICAL MATRIX:
     dynmat0      :      0.01s CPU      0.02s WALL (       1 calls)
     phqscf       :      8.13s CPU     23.72s WALL (       1 calls)
     dynmatrix    :      0.20s CPU      0.79s WALL (       1 calls)
 
     phqscf       :      8.13s CPU     23.72s WALL (       1 calls)
     solve_linter :      8.11s CPU     22.96s WALL (       4 calls)
     drhodv       :      0.01s CPU      0.01s WALL (       4 calls)
 
     dynmat0      :      0.01s CPU      0.02s WALL (       1 calls)
     dynmat_us    :      0.00s CPU      0.00s WALL (       1 calls)
     d2ionq       :      0.00s CPU      0.00s WALL (       1 calls)
     dynmatcc     :      0.01s CPU      0.01s WALL (       1 calls)
 
     dynmat_us    :      0.00s CPU      0.00s WALL (       1 calls)
     addusdynmat  :      0.00s CPU      0.00s WALL (       1 calls)
 
     phqscf       :      8.13s CPU     23.72s WALL (       1 calls)
     solve_linter :      8.11s CPU     22.96s WALL (       4 calls)
 
     solve_linter :      8.11s CPU     22.96s WALL (       4 calls)
     dvqpsi_us    :      0.19s CPU      0.25s WALL (      60 calls)
     ortho        :      0.02s CPU      0.02s WALL (     370 calls)
     cgsolve      :      1.12s CPU      1.33s WALL (     370 calls)
     incdrhoscf   :      0.40s CPU      0.51s WALL (     370 calls)
     addusddens   :      0.02s CPU      0.03s WALL (      31 calls)
     vpsifft      :      0.06s CPU      0.08s WALL (     310 calls)
     dv_of_drho   :      0.01s CPU      0.00s WALL (      37 calls)
     mix_pot      :      0.97s CPU      6.90s WALL (      27 calls)
     psymdvscf    :      0.08s CPU      0.08s WALL (      27 calls)
     newdq        :      0.03s CPU      0.04s WALL (      27 calls)
     adddvscf     :      0.00s CPU      0.00s WALL (     310 calls)
     drhodvus     :      0.00s CPU      0.00s WALL (       4 calls)
 
     dvqpsi_us    :      0.19s CPU      0.25s WALL (      60 calls)
     dvqpsi_us_on :      0.01s CPU      0.01s WALL (      60 calls)
 
     cgsolve      :      1.12s CPU      1.33s WALL (     370 calls)
     ch_psi       :      1.02s CPU      1.21s WALL (    3481 calls)
 
     ch_psi       :      1.02s CPU      1.21s WALL (    3481 calls)
     h_psiq       :      0.88s CPU      1.01s WALL (    3481 calls)
     last         :      0.12s CPU      0.18s WALL (    3481 calls)
 
     h_psiq       :      0.88s CPU      1.01s WALL (    3481 calls)
     firstfft     :      0.35s CPU      0.40s WALL (   12294 calls)
     secondfft    :      0.38s CPU      0.41s WALL (   12294 calls)
     add_vuspsi   :      0.02s CPU      0.03s WALL (    3731 calls)
 
     incdrhoscf   :      0.40s CPU      0.51s WALL (     370 calls)
     addusdbec    :      0.01s CPU      0.01s WALL (     430 calls)
 
     drhodvus     :      0.00s CPU      0.00s WALL (       4 calls)
 
      General routines
     calbec       :      0.25s CPU      0.36s WALL (    8392 calls)
     fft          :      0.01s CPU      0.10s WALL (     283 calls)
     ffts         :      0.17s CPU      0.23s WALL (      90 calls)
     fftw         :      1.26s CPU      1.47s WALL (   32788 calls)
     davcio       :      0.01s CPU      0.05s WALL (    1985 calls)
     write_rec    :      0.04s CPU      7.15s WALL (      31 calls)
 
 
     PHONON       :     9.88s CPU        35.55s WALL

 
   This run was terminated on:  15:43:36  23Jan2018            

=------------------------------------------------------------------------------=
   JOB DONE.
=------------------------------------------------------------------------------=
