
     Program PWSCF v.6.5 starts on 23Jun2020 at 13:36:39 

     This program is part of the open-source Quantum ESPRESSO suite
     for quantum simulation of materials; please cite
         "P. Giannozzi et al., J. Phys.:Condens. Matter 21 395502 (2009);
         "P. Giannozzi et al., J. Phys.:Condens. Matter 29 465901 (2017);
          URL http://www.quantum-espresso.org", 
     in publications or presentations arising from this work. More details at
     http://www.quantum-espresso.org/quote

     Parallel version (MPI), running on    20 processors

     MPI processes distributed on     1 nodes
     K-points division:     npool     =       4
     R & G space division:  proc/nbgrp/npool/nimage =       5
     Waiting for input...
     Reading input from standard input
Warning: card &IONS ignored
Warning: card   ION_DYNAMICS = 'BFGS' ignored
Warning: card / ignored
Warning: card &CELL ignored
Warning: card   PRESS = 0.D0 ignored
Warning: card / ignored

     Current dimensions of program PWSCF are:
     Max number of different atomic species (ntypx) = 10
     Max number of k-points (npk) =  40000
     Max angular momentum in pseudopotentials (lmaxx) =  3

     Subspace diagonalization in iterative solution of the eigenvalue problem:
     one sub-group per band group will be used
     scalapack distributed-memory algorithm (size of sub-group:  2*  2 procs)

     Message from routine setup:
     using ibrav=0 with symmetry is DISCOURAGED, use correct ibrav instead
 
     Parallelization info
     --------------------
     sticks:   dense  smooth     PW     G-vecs:    dense   smooth      PW
     Min         529     529    149                17539    17539    2674
     Max         530     530    150                17539    17539    2675
     Sum        2649    2649    749                87695    87695   13373
 


     bravais-lattice index     =            0
     lattice parameter (alat)  =       9.9556  a.u.
     unit-cell volume          =     648.8498 (a.u.)^3
     number of atoms/cell      =           10
     number of atomic types    =            3
     number of electrons       =        74.00
     number of Kohn-Sham states=           44
     kinetic-energy cutoff     =     100.0000  Ry
     charge density cutoff     =     400.0000  Ry
     convergence threshold     =      1.0E-12
     mixing beta               =       0.3000
     number of iterations used =            8  plain     mixing
     Exchange-correlation= PBESOL
                           (   1   4  10   8   0   0   0)

     celldm(1)=   9.955646  celldm(2)=   0.000000  celldm(3)=   0.000000
     celldm(4)=   0.000000  celldm(5)=   0.000000  celldm(6)=   0.000000

     crystal axes: (cart. coord. in units of alat)
               a(1) = (   0.476865   0.275318   0.834745 )  
               a(2) = (  -0.476865   0.275318   0.834745 )  
               a(3) = (   0.000000  -0.550637   0.834745 )  

     reciprocal axes: (cart. coord. in units 2 pi/alat)
               b(1) = (  1.048514  0.605360  0.399323 )  
               b(2) = ( -1.048514  0.605360  0.399323 )  
               b(3) = (  0.000000 -1.210720  0.399323 )  


     PseudoPot. # 1 for Li read from file:
     /scratch/yf1159/pwwork/psp/Li.upf
     MD5 check sum: dc9f6e608df41cc7e5665a263ba47fe0
     Pseudo is Norm-conserving, Zval =  3.0
     Generated using ONCVPSP code by D. R. Hamann
     Using radial grid of 1944 points,  4 beta functions with: 
                l(1) =   0
                l(2) =   0
                l(3) =   1
                l(4) =   1

     PseudoPot. # 2 for Os read from file:
     /scratch/yf1159/pwwork/psp/Os.upf
     MD5 check sum: ddc0cf69cd6bd23badf4cab974e3dee8
     Pseudo is Norm-conserving + core correction, Zval = 16.0
     Generated using ONCVPSP code by D. R. Hamann
     Using radial grid of 1328 points,  8 beta functions with: 
                l(1) =   0
                l(2) =   0
                l(3) =   1
                l(4) =   1
                l(5) =   2
                l(6) =   2
                l(7) =   3
                l(8) =   3

     PseudoPot. # 3 for O  read from file:
     /scratch/yf1159/pwwork/psp/O.upf
     MD5 check sum: f226cbcd508cec715ff87a8f75a1dfba
     Pseudo is Norm-conserving + core correction, Zval =  6.0
     Generated using ONCVPSP code by D. R. Hamann
     Using radial grid of  936 points,  5 beta functions with: 
                l(1) =   0
                l(2) =   0
                l(3) =   1
                l(4) =   1
                l(5) =   2

     atomic species   valence    mass     pseudopotential
        Li             3.00     6.94100     Li( 1.00)
        Os            16.00   190.23000     Os( 1.00)
        O              6.00    15.99940     O ( 1.00)

      6 Sym. Ops. (no inversion) found ( 3 have fractional translation)


                                    s                        frac. trans.

      isym =  1     identity                                     

 cryst.   s( 1) = (     1          0          0      )
                  (     0          1          0      )
                  (     0          0          1      )

 cart.    s( 1) = (  1.0000000  0.0000000  0.0000000 )
                  (  0.0000000  1.0000000  0.0000000 )
                  (  0.0000000  0.0000000  1.0000000 )


      isym =  2     120 deg rotation - cryst. axis [0,0,1]       

 cryst.   s( 2) = (     0          1          0      )
                  (     0          0          1      )
                  (     1          0          0      )

 cart.    s( 2) = ( -0.5000000 -0.8660254  0.0000000 )
                  (  0.8660254 -0.5000000  0.0000000 )
                  (  0.0000000  0.0000000  1.0000000 )


      isym =  3     120 deg rotation - cryst. axis [0,0,-1]      

 cryst.   s( 3) = (     0          0          1      )
                  (     1          0          0      )
                  (     0          1          0      )

 cart.    s( 3) = ( -0.5000000  0.8660254 -0.0000000 )
                  ( -0.8660254 -0.5000000  0.0000000 )
                  (  0.0000000  0.0000000  1.0000000 )


      isym =  4     inv. 180 deg rotation - cart. axis [1,0,0]   

 cryst.   s( 4) = (     0          1          0      )    f =( -0.5000000 )
                  (     1          0          0      )       ( -0.5000000 )
                  (     0          0          1      )       ( -0.5000000 )

 cart.    s( 4) = ( -1.0000000  0.0000000  0.0000000 )    f =(  0.0000000 )
                  (  0.0000000  1.0000000  0.0000000 )       ( -0.0000000 )
                  (  0.0000000  0.0000000  1.0000000 )       ( -1.2521177 )


      isym =  5     inv. 180 deg rotation - cryst. axis [0,1,0]  

 cryst.   s( 5) = (     1          0          0      )    f =( -0.5000000 )
                  (     0          0          1      )       ( -0.5000000 )
                  (     0          1          0      )       ( -0.5000000 )

 cart.    s( 5) = (  0.5000000  0.8660254 -0.0000000 )    f =(  0.0000000 )
                  (  0.8660254 -0.5000000  0.0000000 )       ( -0.0000000 )
                  (  0.0000000  0.0000000  1.0000000 )       ( -1.2521177 )


      isym =  6     inv. 180 deg rotation - cryst. axis [1,1,0]  

 cryst.   s( 6) = (     0          0          1      )    f =( -0.5000000 )
                  (     0          1          0      )       ( -0.5000000 )
                  (     1          0          0      )       ( -0.5000000 )

 cart.    s( 6) = (  0.5000000 -0.8660254  0.0000000 )    f =(  0.0000000 )
                  ( -0.8660254 -0.5000000  0.0000000 )       ( -0.0000000 )
                  (  0.0000000  0.0000000  1.0000000 )       ( -1.2521177 )


   Cartesian axes

     site n.     atom                  positions (alat units)
         1           Li  tau(   1) = (   0.0000000   0.0000000   0.5391147  )
         2           Li  tau(   2) = (   0.0000000   0.0000000   1.7912324  )
         3           Os  tau(   3) = (   0.0000000   0.0000000   0.0000278  )
         4           Os  tau(   4) = (   0.0000000   0.0000000   1.2521455  )
         5           O   tau(   5) = (   0.3027206   0.0316430   1.0492927  )
         6           O   tau(   6) = (  -0.1787640   0.2463422   1.0492927  )
         7           O   tau(   7) = (  -0.1239566  -0.2779853   1.0492927  )
         8           O   tau(   8) = (   0.1741446  -0.2436752   1.4666653  )
         9           O   tau(   9) = (  -0.2981012  -0.0289760   1.4666653  )
        10           O   tau(  10) = (   0.1239566   0.2726512   1.4666653  )

   Crystallographic axes

     site n.     atom                  positions (cryst. coord.)
         1           Li  tau(   1) = (  0.2152811  0.2152811  0.2152811  )
         2           Li  tau(   2) = (  0.7152812  0.7152812  0.7152812  )
         3           Os  tau(   3) = (  0.0000111  0.0000111  0.0000111  )
         4           Os  tau(   4) = (  0.5000111  0.5000111  0.5000111  )
         5           O   tau(   5) = (  0.7555695  0.1207557  0.3806964  )
         6           O   tau(   6) = (  0.3806964  0.7555695  0.1207557  )
         7           O   tau(   7) = (  0.1207557  0.3806964  0.7555695  )
         8           O   tau(   8) = (  0.6207557  0.2555695  0.8806964  )
         9           O   tau(   9) = (  0.2555695  0.8806964  0.6207557  )
        10           O   tau(  10) = (  0.8806964  0.6207557  0.2555695  )

     number of k points=    65  Gaussian smearing, width (Ry)=  0.0050
                       cart. coord. in units 2pi/alat
        k(    1) = (   0.0000000   0.0000000   0.0000000), wk =   0.0039062
        k(    2) = (   0.0000000  -0.1513400   0.0499154), wk =   0.0234375
        k(    3) = (   0.0000000  -0.3026800   0.0998309), wk =   0.0234375
        k(    4) = (   0.0000000  -0.4540200   0.1497463), wk =   0.0234375
        k(    5) = (   0.0000000   0.6053600  -0.1996617), wk =   0.0117188
        k(    6) = (  -0.1310643  -0.0756700   0.0998309), wk =   0.0234375
        k(    7) = (  -0.1310643  -0.2270100   0.1497463), wk =   0.0468750
        k(    8) = (  -0.1310643  -0.3783500   0.1996617), wk =   0.0468750
        k(    9) = (  -0.1310643   0.6810300  -0.1497463), wk =   0.0468750
        k(   10) = (  -0.1310643   0.5296900  -0.0998309), wk =   0.0468750
        k(   11) = (  -0.1310643   0.3783500  -0.0499154), wk =   0.0468750
        k(   12) = (  -0.1310643   0.2270100  -0.0000000), wk =   0.0234375
        k(   13) = (  -0.2621286  -0.1513400   0.1996617), wk =   0.0234375
        k(   14) = (  -0.2621286  -0.3026800   0.2495772), wk =   0.0468750
        k(   15) = (  -0.2621286   0.7567000  -0.0998309), wk =   0.0468750
        k(   16) = (  -0.2621286   0.6053600  -0.0499154), wk =   0.0468750
        k(   17) = (  -0.2621286   0.4540200  -0.0000000), wk =   0.0234375
        k(   18) = (  -0.3931929  -0.2270100   0.2994926), wk =   0.0234375
        k(   19) = (  -0.3931929   0.8323700  -0.0499154), wk =   0.0468750
        k(   20) = (  -0.3931929   0.6810300  -0.0000000), wk =   0.0234375
        k(   21) = (   0.5242572   0.3026800  -0.3993235), wk =   0.0117188
        k(   22) = (   0.0000000   0.0000000   0.1497463), wk =   0.0078125
        k(   23) = (   0.0000000  -0.1513400   0.1996617), wk =   0.0234375
        k(   24) = (   0.0000000  -0.3026800   0.2495772), wk =   0.0234375
        k(   25) = (   0.0000000   0.7567000  -0.0998309), wk =   0.0234375
        k(   26) = (   0.0000000   0.6053600  -0.0499154), wk =   0.0234375
        k(   27) = (   0.0000000   0.4540200  -0.0000000), wk =   0.0234375
        k(   28) = (   0.0000000   0.3026800   0.0499154), wk =   0.0234375
        k(   29) = (  -0.1310643  -0.0756700   0.2495772), wk =   0.0234375
        k(   30) = (  -0.1310643  -0.2270100   0.2994926), wk =   0.0468750
        k(   31) = (  -0.1310643   0.8323700  -0.0499154), wk =   0.0468750
        k(   32) = (  -0.1310643   0.6810300  -0.0000000), wk =   0.0468750
        k(   33) = (  -0.1310643   0.5296900   0.0499154), wk =   0.0468750
        k(   34) = (  -0.1310643   0.3783500   0.0998309), wk =   0.0468750
        k(   35) = (  -0.2621286  -0.1513400   0.3494080), wk =   0.0234375
        k(   36) = (  -0.2621286   0.9080401  -0.0000000), wk =   0.0468750
        k(   37) = (  -0.2621286   0.7567000   0.0499154), wk =   0.0468750
        k(   38) = (  -0.2621286   0.6053600   0.0998309), wk =   0.0468750
        k(   39) = (  -0.2621286   0.4540200   0.1497463), wk =   0.0468750
        k(   40) = (   0.6553215   0.3783500  -0.3494080), wk =   0.0234375
        k(   41) = (   0.6553215   0.2270100  -0.2994926), wk =   0.0468750
        k(   42) = (   0.6553215   0.0756700  -0.2495772), wk =   0.0468750
        k(   43) = (   0.6553215  -0.0756700  -0.1996617), wk =   0.0234375
        k(   44) = (   0.5242572   0.3026800  -0.2495772), wk =   0.0234375
        k(   45) = (   0.5242572   0.1513400  -0.1996617), wk =   0.0468750
        k(   46) = (   0.3931929   0.2270100  -0.1497463), wk =   0.0234375
        k(   47) = (   0.0000000   0.0000000   0.2994926), wk =   0.0078125
        k(   48) = (   0.0000000  -0.1513400   0.3494080), wk =   0.0234375
        k(   49) = (   0.0000000   0.9080401  -0.0000000), wk =   0.0234375
        k(   50) = (   0.0000000   0.7567000   0.0499154), wk =   0.0234375
        k(   51) = (   0.0000000   0.6053600   0.0998309), wk =   0.0234375
        k(   52) = (  -0.1310643  -0.0756700   0.3993235), wk =   0.0234375
        k(   53) = (  -0.1310643   0.9837101   0.0499154), wk =   0.0468750
        k(   54) = (  -0.1310643   0.8323700   0.0998309), wk =   0.0468750
        k(   55) = (  -0.1310643   0.6810300   0.1497463), wk =   0.0468750
        k(   56) = (   0.7863858   0.4540200  -0.2994926), wk =   0.0234375
        k(   57) = (   0.7863858   0.3026800  -0.2495772), wk =   0.0468750
        k(   58) = (   0.7863858   0.1513400  -0.1996617), wk =   0.0234375
        k(   59) = (   0.6553215   0.3783500  -0.1996617), wk =   0.0234375
        k(   60) = (   0.0000000   0.0000000   0.4492389), wk =   0.0078125
        k(   61) = (   0.0000000   1.0593801   0.0998309), wk =   0.0234375
        k(   62) = (   0.0000000   0.9080401   0.1497463), wk =   0.0234375
        k(   63) = (   0.9174500   0.5296900  -0.2495772), wk =   0.0234375
        k(   64) = (   0.9174500   0.3783500  -0.1996617), wk =   0.0234375
        k(   65) = (   0.0000000   0.0000000  -0.5989852), wk =   0.0039062

                       cryst. coord.
        k(    1) = (   0.0000000   0.0000000   0.0000000), wk =   0.0039062
        k(    2) = (  -0.0000000  -0.0000000   0.1250000), wk =   0.0234375
        k(    3) = (  -0.0000000  -0.0000000   0.2500000), wk =   0.0234375
        k(    4) = (   0.0000000   0.0000000   0.3750000), wk =   0.0234375
        k(    5) = (   0.0000000   0.0000000  -0.5000000), wk =   0.0117188
        k(    6) = (  -0.0000000   0.1250000   0.1250000), wk =   0.0234375
        k(    7) = (   0.0000000   0.1250000   0.2500000), wk =   0.0468750
        k(    8) = (   0.0000000   0.1250000   0.3750000), wk =   0.0468750
        k(    9) = (  -0.0000000   0.1250000  -0.5000000), wk =   0.0468750
        k(   10) = (   0.0000000   0.1250000  -0.3750000), wk =   0.0468750
        k(   11) = (   0.0000000   0.1250000  -0.2500000), wk =   0.0468750
        k(   12) = (   0.0000000   0.1250000  -0.1250000), wk =   0.0234375
        k(   13) = (  -0.0000000   0.2500000   0.2500000), wk =   0.0234375
        k(   14) = (  -0.0000000   0.2500000   0.3750000), wk =   0.0468750
        k(   15) = (   0.0000000   0.2500000  -0.5000000), wk =   0.0468750
        k(   16) = (   0.0000000   0.2500000  -0.3750000), wk =   0.0468750
        k(   17) = (   0.0000000   0.2500000  -0.2500000), wk =   0.0234375
        k(   18) = (   0.0000000   0.3750000   0.3750000), wk =   0.0234375
        k(   19) = (  -0.0000000   0.3750000  -0.5000000), wk =   0.0468750
        k(   20) = (  -0.0000000   0.3750000  -0.3750000), wk =   0.0234375
        k(   21) = (   0.0000000  -0.5000000  -0.5000000), wk =   0.0117188
        k(   22) = (   0.1250000   0.1250000   0.1250000), wk =   0.0078125
        k(   23) = (   0.1250000   0.1250000   0.2500000), wk =   0.0234375
        k(   24) = (   0.1250000   0.1250000   0.3750000), wk =   0.0234375
        k(   25) = (   0.1250000   0.1250000  -0.5000000), wk =   0.0234375
        k(   26) = (   0.1250000   0.1250000  -0.3750000), wk =   0.0234375
        k(   27) = (   0.1250000   0.1250000  -0.2500000), wk =   0.0234375
        k(   28) = (   0.1250000   0.1250000  -0.1250000), wk =   0.0234375
        k(   29) = (   0.1250000   0.2500000   0.2500000), wk =   0.0234375
        k(   30) = (   0.1250000   0.2500000   0.3750000), wk =   0.0468750
        k(   31) = (   0.1250000   0.2500000  -0.5000000), wk =   0.0468750
        k(   32) = (   0.1250000   0.2500000  -0.3750000), wk =   0.0468750
        k(   33) = (   0.1250000   0.2500000  -0.2500000), wk =   0.0468750
        k(   34) = (   0.1250000   0.2500000  -0.1250000), wk =   0.0468750
        k(   35) = (   0.1250000   0.3750000   0.3750000), wk =   0.0234375
        k(   36) = (   0.1250000   0.3750000  -0.5000000), wk =   0.0468750
        k(   37) = (   0.1250000   0.3750000  -0.3750000), wk =   0.0468750
        k(   38) = (   0.1250000   0.3750000  -0.2500000), wk =   0.0468750
        k(   39) = (   0.1250000   0.3750000  -0.1250000), wk =   0.0468750
        k(   40) = (   0.1250000  -0.5000000  -0.5000000), wk =   0.0234375
        k(   41) = (   0.1250000  -0.5000000  -0.3750000), wk =   0.0468750
        k(   42) = (   0.1250000  -0.5000000  -0.2500000), wk =   0.0468750
        k(   43) = (   0.1250000  -0.5000000  -0.1250000), wk =   0.0234375
        k(   44) = (   0.1250000  -0.3750000  -0.3750000), wk =   0.0234375
        k(   45) = (   0.1250000  -0.3750000  -0.2500000), wk =   0.0468750
        k(   46) = (   0.1250000  -0.2500000  -0.2500000), wk =   0.0234375
        k(   47) = (   0.2500000   0.2500000   0.2500000), wk =   0.0078125
        k(   48) = (   0.2500000   0.2500000   0.3750000), wk =   0.0234375
        k(   49) = (   0.2500000   0.2500000  -0.5000000), wk =   0.0234375
        k(   50) = (   0.2500000   0.2500000  -0.3750000), wk =   0.0234375
        k(   51) = (   0.2500000   0.2500000  -0.2500000), wk =   0.0234375
        k(   52) = (   0.2500000   0.3750000   0.3750000), wk =   0.0234375
        k(   53) = (   0.2500000   0.3750000  -0.5000000), wk =   0.0468750
        k(   54) = (   0.2500000   0.3750000  -0.3750000), wk =   0.0468750
        k(   55) = (   0.2500000   0.3750000  -0.2500000), wk =   0.0468750
        k(   56) = (   0.2500000  -0.5000000  -0.5000000), wk =   0.0234375
        k(   57) = (   0.2500000  -0.5000000  -0.3750000), wk =   0.0468750
        k(   58) = (   0.2500000  -0.5000000  -0.2500000), wk =   0.0234375
        k(   59) = (   0.2500000  -0.3750000  -0.3750000), wk =   0.0234375
        k(   60) = (   0.3750000   0.3750000   0.3750000), wk =   0.0078125
        k(   61) = (   0.3750000   0.3750000  -0.5000000), wk =   0.0234375
        k(   62) = (   0.3750000   0.3750000  -0.3750000), wk =   0.0234375
        k(   63) = (   0.3750000  -0.5000000  -0.5000000), wk =   0.0234375
        k(   64) = (   0.3750000  -0.5000000  -0.3750000), wk =   0.0234375
        k(   65) = (  -0.5000000  -0.5000000  -0.5000000), wk =   0.0039062

     Dense  grid:    87695 G-vectors     FFT dimensions: (  64,  64,  64)

     Dynamical RAM for                 wfc:       1.47 MB

     Dynamical RAM for     wfc (w. buffer):      26.48 MB

     Dynamical RAM for           str. fact:       0.80 MB

     Dynamical RAM for           local pot:       0.00 MB

     Dynamical RAM for          nlocal pot:       5.28 MB

     Dynamical RAM for                qrad:      18.30 MB

     Dynamical RAM for          rho,v,vnew:       2.02 MB

     Dynamical RAM for               rhoin:       0.67 MB

     Dynamical RAM for            rho*nmix:       4.28 MB

     Dynamical RAM for           G-vectors:       1.14 MB

     Dynamical RAM for          h,s,v(r/c):       0.35 MB

     Dynamical RAM for          <psi|beta>:       0.11 MB

     Dynamical RAM for                 psi:       5.88 MB

     Dynamical RAM for                hpsi:       5.88 MB

     Dynamical RAM for      wfcinit/wfcrot:       3.26 MB

     Estimated static dynamical RAM per process >      62.08 MB

     Estimated max dynamical RAM per process >      74.30 MB

     Estimated total dynamical RAM >       1.45 GB

     Initial potential from superposition of free atoms

     starting charge   73.99007, renormalised to   74.00000
     Starting wfcs are   48 randomized atomic wfcs

     total cpu time spent up to now is        3.4 secs

     Self-consistent Calculation

     iteration #  1     ecut=   100.00 Ry     beta= 0.30
     Davidson diagonalization with overlap
     ethr =  1.00E-02,  avg # of iterations =  2.0

     total cpu time spent up to now is        7.7 secs

     total energy              =    -630.60888112 Ry
     Harris-Foulkes estimate   =    -631.79998833 Ry
     estimated scf accuracy    <       2.66705238 Ry

     iteration #  2     ecut=   100.00 Ry     beta= 0.30
     Davidson diagonalization with overlap
     ethr =  3.60E-03,  avg # of iterations =  2.4

     total cpu time spent up to now is       11.9 secs

     total energy              =    -631.14287563 Ry
     Harris-Foulkes estimate   =    -631.18580907 Ry
     estimated scf accuracy    <       0.13602527 Ry

     iteration #  3     ecut=   100.00 Ry     beta= 0.30
     Davidson diagonalization with overlap
     ethr =  1.84E-04,  avg # of iterations =  2.1

     total cpu time spent up to now is       15.8 secs

     total energy              =    -631.16035710 Ry
     Harris-Foulkes estimate   =    -631.16534907 Ry
     estimated scf accuracy    <       0.02605683 Ry

     iteration #  4     ecut=   100.00 Ry     beta= 0.30
     Davidson diagonalization with overlap
     ethr =  3.52E-05,  avg # of iterations =  1.6

     total cpu time spent up to now is       19.7 secs

     total energy              =    -631.16190774 Ry
     Harris-Foulkes estimate   =    -631.16261609 Ry
     estimated scf accuracy    <       0.00402124 Ry

     iteration #  5     ecut=   100.00 Ry     beta= 0.30
     Davidson diagonalization with overlap
     ethr =  5.43E-06,  avg # of iterations =  2.3

     total cpu time spent up to now is       23.6 secs

     total energy              =    -631.16233855 Ry
     Harris-Foulkes estimate   =    -631.16239380 Ry
     estimated scf accuracy    <       0.00023892 Ry

     iteration #  6     ecut=   100.00 Ry     beta= 0.30
     Davidson diagonalization with overlap
     ethr =  3.23E-07,  avg # of iterations =  2.2

     total cpu time spent up to now is       28.0 secs

     total energy              =    -631.16236795 Ry
     Harris-Foulkes estimate   =    -631.16238827 Ry
     estimated scf accuracy    <       0.00003855 Ry

     iteration #  7     ecut=   100.00 Ry     beta= 0.30
     Davidson diagonalization with overlap
     ethr =  5.21E-08,  avg # of iterations =  2.3

     total cpu time spent up to now is       32.8 secs

     total energy              =    -631.16237447 Ry
     Harris-Foulkes estimate   =    -631.16238767 Ry
     estimated scf accuracy    <       0.00003260 Ry

     iteration #  8     ecut=   100.00 Ry     beta= 0.30
     Davidson diagonalization with overlap
     ethr =  4.41E-08,  avg # of iterations =  2.2

     total cpu time spent up to now is       36.9 secs

     total energy              =    -631.16238131 Ry
     Harris-Foulkes estimate   =    -631.16238166 Ry
     estimated scf accuracy    <       0.00000120 Ry

     iteration #  9     ecut=   100.00 Ry     beta= 0.30
     Davidson diagonalization with overlap
     ethr =  1.62E-09,  avg # of iterations =  2.2

     total cpu time spent up to now is       41.2 secs

     total energy              =    -631.16238157 Ry
     Harris-Foulkes estimate   =    -631.16238155 Ry
     estimated scf accuracy    <       0.00000002 Ry

     iteration # 10     ecut=   100.00 Ry     beta= 0.30
     Davidson diagonalization with overlap
     ethr =  2.32E-11,  avg # of iterations =  2.3

     total cpu time spent up to now is       45.8 secs

     total energy              =    -631.16238158 Ry
     Harris-Foulkes estimate   =    -631.16238158 Ry
     estimated scf accuracy    <       0.00000002 Ry

     iteration # 11     ecut=   100.00 Ry     beta= 0.30
     Davidson diagonalization with overlap
     ethr =  2.14E-11,  avg # of iterations =  1.9

     total cpu time spent up to now is       49.7 secs

     total energy              =    -631.16238158 Ry
     Harris-Foulkes estimate   =    -631.16238158 Ry
     estimated scf accuracy    <          2.5E-09 Ry

     iteration # 12     ecut=   100.00 Ry     beta= 0.30
     Davidson diagonalization with overlap
     ethr =  3.39E-12,  avg # of iterations =  2.1

     total cpu time spent up to now is       53.5 secs

     total energy              =    -631.16238158 Ry
     Harris-Foulkes estimate   =    -631.16238158 Ry
     estimated scf accuracy    <          1.8E-10 Ry

     iteration # 13     ecut=   100.00 Ry     beta= 0.30
     Davidson diagonalization with overlap
     ethr =  2.47E-13,  avg # of iterations =  2.2

     total cpu time spent up to now is       58.0 secs

     total energy              =    -631.16238158 Ry
     Harris-Foulkes estimate   =    -631.16238158 Ry
     estimated scf accuracy    <          1.1E-11 Ry

     iteration # 14     ecut=   100.00 Ry     beta= 0.30
     Davidson diagonalization with overlap
     ethr =  1.00E-13,  avg # of iterations =  1.0

     total cpu time spent up to now is       61.5 secs

     End of self-consistent calculation

          k = 0.0000 0.0000 0.0000 ( 10905 PWs)   bands (ev):

   -76.5368 -76.5354 -35.9599 -35.9196 -35.8878 -35.8878 -35.8522 -35.8522
   -32.5437 -32.5389  -9.1155  -8.0189  -8.0189  -6.9789  -6.9568  -6.9568
     2.5930   2.5930   2.9156   3.5428   3.5428   3.7823   5.6211   5.6211
     6.2142   7.2602   7.4488   8.1365   8.1365   8.4073   8.4073   8.5918
     8.5918   8.7480   9.3292   9.3292   9.6137  11.6162  11.6162  12.6873
    14.6955  14.6955  16.5479  18.4109

     occupation numbers 
     1.0000   1.0000   1.0000   1.0000   1.0000   1.0000   1.0000   1.0000
     1.0000   1.0000   1.0000   1.0000   1.0000   1.0000   1.0000   1.0000
     1.0000   1.0000   1.0000   1.0000   1.0000   1.0000   1.0000   1.0000
     1.0000   1.0000   1.0000   1.0000   1.0000   1.0000   1.0000   1.0000
     1.0000   1.0000   1.0000   1.0000   1.0000   0.0000   0.0000   0.0000
     0.0000   0.0000   0.0000   0.0000

          k = 0.0000-0.1513 0.0499 ( 10921 PWs)   bands (ev):

   -76.5367 -76.5355 -35.9584 -35.9212 -35.8865 -35.8865 -35.8537 -35.8536
   -32.5434 -32.5391  -9.0478  -7.9901  -7.9840  -7.0618  -7.0149  -7.0068
     2.7053   2.7185   3.0248   3.6164   3.6269   3.8426   5.4641   5.5310
     6.0329   7.1012   7.3063   7.8026   8.1126   8.2153   8.3415   8.4485
     8.5236   8.7232   9.6280   9.7011   9.9291  11.7382  11.7571  12.5841
    14.6550  14.7249  16.7939  18.2042

     occupation numbers 
     1.0000   1.0000   1.0000   1.0000   1.0000   1.0000   1.0000   1.0000
     1.0000   1.0000   1.0000   1.0000   1.0000   1.0000   1.0000   1.0000
     1.0000   1.0000   1.0000   1.0000   1.0000   1.0000   1.0000   1.0000
     1.0000   1.0000   1.0000   1.0000   1.0000   1.0000   1.0000   1.0000
     1.0000   1.0000   1.0000   1.0000   1.0000   0.0000   0.0000   0.0000
     0.0000   0.0000   0.0000   0.0000

          k = 0.0000-0.3027 0.0998 ( 10955 PWs)   bands (ev):

   -76.5366 -76.5356 -35.9540 -35.9256 -35.8829 -35.8827 -35.8578 -35.8575
   -32.5427 -32.5395  -8.8508  -7.9100  -7.8837  -7.3210  -7.1418  -7.1400
     3.0217   3.0541   3.3220   3.8448   3.8822   4.0349   5.0869   5.2610
     5.5663   6.6585   6.7580   6.9760   7.9947   8.2036   8.3181   8.3512
     8.5841   8.6930  10.1664  10.2554  10.4942  11.9238  11.9509  12.2998
    14.7052  14.9143  17.2573  17.6880

     occupation numbers 
     1.0000   1.0000   1.0000   1.0000   1.0000   1.0000   1.0000   1.0000
     1.0000   1.0000   1.0000   1.0000   1.0000   1.0000   1.0000   1.0000
     1.0000   1.0000   1.0000   1.0000   1.0000   1.0000   1.0000   1.0000
     1.0000   1.0000   1.0000   1.0000   1.0000   1.0000   1.0000   1.0000
     1.0000   1.0000   1.0000   1.0000   1.0000   0.0000   0.0000   0.0000
     0.0000   0.0000   0.0000   0.0000

          k = 0.0000-0.4540 0.1497 ( 10969 PWs)   bands (ev):

   -76.5364 -76.5358 -35.9475 -35.9321 -35.8773 -35.8770 -35.8638 -35.8633
   -32.5418 -32.5401  -8.5443  -7.8544  -7.7323  -7.6179  -7.3228  -7.3143
     3.4836   3.4840   3.7024   4.1982   4.2429   4.3704   4.6211   5.0215
     5.0561   5.9759   5.9760   6.0951   8.1047   8.2779   8.3821   8.3830
     8.5548   8.5996  10.7653  10.7878  11.0392  11.7856  11.8730  11.9685
    15.1334  15.4181  16.7378  16.9761

     occupation numbers 
     1.0000   1.0000   1.0000   1.0000   1.0000   1.0000   1.0000   1.0000
     1.0000   1.0000   1.0000   1.0000   1.0000   1.0000   1.0000   1.0000
     1.0000   1.0000   1.0000   1.0000   1.0000   1.0000   1.0000   1.0000
     1.0000   1.0000   1.0000   1.0000   1.0000   1.0000   1.0000   1.0000
     1.0000   1.0000   1.0000   1.0000   1.0000   0.0000   0.0000   0.0000
     0.0000   0.0000   0.0000   0.0000

          k = 0.0000 0.6054-0.1997 ( 10984 PWs)   bands (ev):

   -76.5361 -76.5361 -35.9399 -35.9399 -35.8707 -35.8707 -35.8701 -35.8701
   -32.5409 -32.5409  -8.1670  -8.1670  -7.5947  -7.5947  -7.4597  -7.4597
     3.8122   3.8122   4.0807   4.0807   4.2809   4.2809   4.9462   4.9462
     5.3066   5.3066   5.4450   5.4450   8.2797   8.2797   8.4104   8.4104
     8.5153   8.5153  11.1930  11.1930  11.3854  11.3854  11.7003  11.7003
    15.8922  15.8922  16.1721  16.1721

     occupation numbers 
     1.0000   1.0000   1.0000   1.0000   1.0000   1.0000   1.0000   1.0000
     1.0000   1.0000   1.0000   1.0000   1.0000   1.0000   1.0000   1.0000
     1.0000   1.0000   1.0000   1.0000   1.0000   1.0000   1.0000   1.0000
     1.0000   1.0000   1.0000   1.0000   1.0000   1.0000   1.0000   1.0000
     1.0000   1.0000   1.0000   1.0000   0.6653   0.6653   0.0000   0.0000
     0.0000   0.0000   0.0000   0.0000

          k =-0.1311-0.0757 0.0998 ( 10915 PWs)   bands (ev):

   -76.5367 -76.5355 -35.9581 -35.9218 -35.8881 -35.8840 -35.8559 -35.8519
   -32.5433 -32.5391  -9.0312  -8.0039  -7.9460  -7.1615  -6.9883  -6.9874
     2.5911   2.7459   3.1920   3.5909   3.7253   3.8831   5.1523   5.6767
     6.0920   7.0914   7.2825   7.8784   7.9213   8.1574   8.2135   8.4285
     8.6198   8.6549   9.4671   9.9253  10.1662  11.4820  11.9701  12.5766
    14.6728  14.7282  16.8889  17.8891

     occupation numbers 
     1.0000   1.0000   1.0000   1.0000   1.0000   1.0000   1.0000   1.0000
     1.0000   1.0000   1.0000   1.0000   1.0000   1.0000   1.0000   1.0000
     1.0000   1.0000   1.0000   1.0000   1.0000   1.0000   1.0000   1.0000
     1.0000   1.0000   1.0000   1.0000   1.0000   1.0000   1.0000   1.0000
     1.0000   1.0000   1.0000   1.0000   1.0000   0.0569   0.0000   0.0000
     0.0000   0.0000   0.0000   0.0000

          k =-0.1311-0.2270 0.1497 ( 10936 PWs)   bands (ev):

   -76.5366 -76.5356 -35.9552 -35.9254 -35.8871 -35.8792 -35.8602 -35.8531
   -32.5428 -32.5394  -8.8933  -7.9578  -7.8472  -7.3834  -7.0833  -7.0492
     2.6966   2.8756   3.5299   3.7822   3.9837   4.0941   4.6563   5.5770
     5.9057   6.7100   6.9023   7.4458   7.7810   7.9835   8.2452   8.3996
     8.5133   8.7043   9.7146  10.3966  10.6803  11.4902  12.1084  12.4409
    14.6501  14.9249  17.1600  17.5566

     occupation numbers 
     1.0000   1.0000   1.0000   1.0000   1.0000   1.0000   1.0000   1.0000
     1.0000   1.0000   1.0000   1.0000   1.0000   1.0000   1.0000   1.0000
     1.0000   1.0000   1.0000   1.0000   1.0000   1.0000   1.0000   1.0000
     1.0000   1.0000   1.0000   1.0000   1.0000   1.0000   1.0000   1.0000
     1.0000   1.0000   1.0000   1.0000   1.0000   0.0399   0.0000   0.0000
     0.0000   0.0000   0.0000   0.0000

          k =-0.1311-0.3784 0.1997 ( 10955 PWs)   bands (ev):

   -76.5364 -76.5358 -35.9500 -35.9312 -35.8836 -35.8730 -35.8660 -35.8570
   -32.5420 -32.5399  -8.6472  -7.8584  -7.7815  -7.5917  -7.2718  -7.1850
     2.9957   3.1612   3.7613   4.0078   4.3040   4.4187   4.5825   5.2202
     5.5516   6.0076   6.2002   6.8578   7.8250   8.0590   8.2410   8.3754
     8.4702   8.6483  10.2037  10.8396  11.1747  11.5808  11.9819  12.2473
    14.8010  15.4272  16.4379  17.6822

     occupation numbers 
     1.0000   1.0000   1.0000   1.0000   1.0000   1.0000   1.0000   1.0000
     1.0000   1.0000   1.0000   1.0000   1.0000   1.0000   1.0000   1.0000
     1.0000   1.0000   1.0000   1.0000   1.0000   1.0000   1.0000   1.0000
     1.0000   1.0000   1.0000   1.0000   1.0000   1.0000   1.0000   1.0000
     1.0000   1.0000   1.0000   1.0000   1.0000   0.0001   0.0000   0.0000
     0.0000   0.0000   0.0000   0.0000

          k =-0.1311 0.6810-0.1497 ( 10970 PWs)   bands (ev):

   -76.5362 -76.5360 -35.9433 -35.9383 -35.8781 -35.8724 -35.8664 -35.8629
   -32.5411 -32.5406  -8.3204  -8.0814  -7.7007  -7.5172  -7.4294  -7.3625
     3.4005   3.4389   3.5576   4.4159   4.5181   4.5716   4.7947   5.1128
     5.2472   5.4539   5.6783   6.1752   8.0000   8.1408   8.2225   8.3651
     8.4606   8.5607  10.7556  11.1211  11.3574  11.5169  11.8639  11.9840
    15.2963  15.6377  16.1783  16.9621

     occupation numbers 
     1.0000   1.0000   1.0000   1.0000   1.0000   1.0000   1.0000   1.0000
     1.0000   1.0000   1.0000   1.0000   1.0000   1.0000   1.0000   1.0000
     1.0000   1.0000   1.0000   1.0000   1.0000   1.0000   1.0000   1.0000
     1.0000   1.0000   1.0000   1.0000   1.0000   1.0000   1.0000   1.0000
     1.0000   1.0000   1.0000   1.0000   0.8433   0.0106   0.0000   0.0000
     0.0000   0.0000   0.0000   0.0000

          k =-0.1311 0.5297-0.0998 ( 10964 PWs)   bands (ev):

   -76.5363 -76.5359 -35.9454 -35.9358 -35.8786 -35.8713 -35.8697 -35.8604
   -32.5413 -32.5404  -8.4245  -7.9644  -7.7087  -7.5805  -7.4621  -7.2582
     3.0184   3.8325   4.0271   4.1016   4.2495   4.4468   4.6948   4.8689
     5.1826   5.7691   5.9538   6.3579   7.9251   8.0022   8.3227   8.3956
     8.4899   8.5898  10.8667  11.0634  11.2443  11.3986  11.7308  12.1689
    14.9787  16.0480  16.1382  16.9857

     occupation numbers 
     1.0000   1.0000   1.0000   1.0000   1.0000   1.0000   1.0000   1.0000
     1.0000   1.0000   1.0000   1.0000   1.0000   1.0000   1.0000   1.0000
     1.0000   1.0000   1.0000   1.0000   1.0000   1.0000   1.0000   1.0000
     1.0000   1.0000   1.0000   1.0000   1.0000   1.0000   1.0000   1.0000
     1.0000   1.0000   1.0000   1.0000   0.9996   0.5604   0.0000   0.0000
     0.0000   0.0000   0.0000   0.0000

          k =-0.1311 0.3784-0.0499 ( 10951 PWs)   bands (ev):

   -76.5365 -76.5357 -35.9516 -35.9289 -35.8835 -35.8766 -35.8642 -35.8559
   -32.5422 -32.5398  -8.7257  -7.8837  -7.7810  -7.5273  -7.2901  -7.0962
     2.7538   3.5388   3.7075   3.9173   3.9662   4.3677   4.5888   4.9019
     5.8846   6.0069   6.6315   7.1102   7.7426   8.0034   8.3081   8.3918
     8.4380   8.7224  10.4157  10.5684  10.8591  11.6480  11.8194  12.3921
    14.6299  15.3719  16.8611  17.6525

     occupation numbers 
     1.0000   1.0000   1.0000   1.0000   1.0000   1.0000   1.0000   1.0000
     1.0000   1.0000   1.0000   1.0000   1.0000   1.0000   1.0000   1.0000
     1.0000   1.0000   1.0000   1.0000   1.0000   1.0000   1.0000   1.0000
     1.0000   1.0000   1.0000   1.0000   1.0000   1.0000   1.0000   1.0000
     1.0000   1.0000   1.0000   1.0000   1.0000   0.0000   0.0000   0.0000
     0.0000   0.0000   0.0000   0.0000

          k =-0.1311 0.2270-0.0000 ( 10933 PWs)   bands (ev):

   -76.5367 -76.5356 -35.9561 -35.9237 -35.8863 -35.8825 -35.8580 -35.8536
   -32.5430 -32.5393  -8.9421  -7.9661  -7.9049  -7.2398  -7.1230  -7.0069
     2.6618   3.0448   3.2627   3.6819   3.7668   4.0056   5.0730   5.3721
     6.0250   6.6713   7.0886   7.6944   7.8352   8.1886   8.2668   8.3756
     8.3880   8.7553   9.9550  10.0419  10.3297  11.6180  12.0078  12.4801
    14.5960  14.8801  17.1567  17.7228

     occupation numbers 
     1.0000   1.0000   1.0000   1.0000   1.0000   1.0000   1.0000   1.0000
     1.0000   1.0000   1.0000   1.0000   1.0000   1.0000   1.0000   1.0000
     1.0000   1.0000   1.0000   1.0000   1.0000   1.0000   1.0000   1.0000
     1.0000   1.0000   1.0000   1.0000   1.0000   1.0000   1.0000   1.0000
     1.0000   1.0000   1.0000   1.0000   1.0000   0.0000   0.0000   0.0000
     0.0000   0.0000   0.0000   0.0000

          k =-0.2621-0.1513 0.1997 ( 10943 PWs)   bands (ev):

   -76.5366 -76.5356 -35.9546 -35.9282 -35.8889 -35.8738 -35.8636 -35.8513
   -32.5425 -32.5396  -8.8420  -7.9662  -7.7301  -7.5873  -7.0638  -7.0361
     2.5771   2.7472   3.4881   3.9205   4.1843   4.3290   4.4974   5.8435
     6.0676   6.6690   6.7821   7.3044   7.5736   7.9500   8.0777   8.4019
     8.5488   8.5912   9.4147  10.7140  11.0946  11.1296  12.1453  12.4872
    14.6302  15.1038  16.6749  17.8560

     occupation numbers 
     1.0000   1.0000   1.0000   1.0000   1.0000   1.0000   1.0000   1.0000
     1.0000   1.0000   1.0000   1.0000   1.0000   1.0000   1.0000   1.0000
     1.0000   1.0000   1.0000   1.0000   1.0000   1.0000   1.0000   1.0000
     1.0000   1.0000   1.0000   1.0000   1.0000   1.0000   1.0000   1.0000
     1.0000   1.0000   1.0000   1.0000   1.0000   1.0000   0.0000   0.0000
     0.0000   0.0000   0.0000   0.0000

          k =-0.2621-0.3027 0.2496 ( 10950 PWs)   bands (ev):

   -76.5364 -76.5358 -35.9520 -35.9331 -35.8879 -35.8678 -35.8677 -35.8524
   -32.5419 -32.5399  -8.6975  -7.9167  -7.8306  -7.5624  -7.1669  -7.1022
     2.6725   2.8265   3.3600   3.6086   4.5364   4.6697   5.0760   5.7252
     5.9869   6.2222   6.4675   7.2167   7.4958   7.6702   8.1092   8.2230
     8.4039   8.5926   9.6113  10.9219  11.0964  11.5501  12.0830  12.4396
    14.6260  15.5081  16.0023  18.2174

     occupation numbers 
     1.0000   1.0000   1.0000   1.0000   1.0000   1.0000   1.0000   1.0000
     1.0000   1.0000   1.0000   1.0000   1.0000   1.0000   1.0000   1.0000
     1.0000   1.0000   1.0000   1.0000   1.0000   1.0000   1.0000   1.0000
     1.0000   1.0000   1.0000   1.0000   1.0000   1.0000   1.0000   1.0000
     1.0000   1.0000   1.0000   1.0000   1.0000   0.0014   0.0000   0.0000
     0.0000   0.0000   0.0000   0.0000

          k =-0.2621 0.7567-0.0998 ( 10973 PWs)   bands (ev):

   -76.5363 -76.5359 -35.9473 -35.9387 -35.8844 -35.8725 -35.8621 -35.8563
   -32.5413 -32.5404  -8.4714  -8.0787  -7.8099  -7.3997  -7.3417  -7.2342
     2.9137   2.9695   3.1067   3.9014   4.7369   4.9603   5.2099   5.5800
     5.6318   5.8373   6.2357   6.9439   7.4812   7.7440   7.8851   8.1208
     8.3945   8.5364  10.1318  10.9716  11.2680  11.6541  12.1329  12.2877
    14.7885  15.3728  16.1341  17.7158

     occupation numbers 
     1.0000   1.0000   1.0000   1.0000   1.0000   1.0000   1.0000   1.0000
     1.0000   1.0000   1.0000   1.0000   1.0000   1.0000   1.0000   1.0000
     1.0000   1.0000   1.0000   1.0000   1.0000   1.0000   1.0000   1.0000
     1.0000   1.0000   1.0000   1.0000   1.0000   1.0000   1.0000   1.0000
     1.0000   1.0000   1.0000   1.0000   0.9979   0.0000   0.0000   0.0000
     0.0000   0.0000   0.0000   0.0000

          k =-0.2621 0.6054-0.0499 ( 10969 PWs)   bands (ev):

   -76.5361 -76.5361 -35.9439 -35.9411 -35.8787 -35.8774 -35.8623 -35.8580
   -32.5409 -32.5407  -8.3178  -8.1860  -7.6819  -7.5586  -7.4039  -7.2185
     2.6536   3.4016   3.5154   4.4006   4.4572   4.7066   4.8709   5.0752
     5.3913   5.9793   6.5370   6.8078   7.4583   7.5408   7.9476   8.3229
     8.4095   8.5312  10.7107  10.9359  11.2510  11.4347  11.9596  12.3365
    14.9136  15.2937  16.8114  16.9863

     occupation numbers 
     1.0000   1.0000   1.0000   1.0000   1.0000   1.0000   1.0000   1.0000
     1.0000   1.0000   1.0000   1.0000   1.0000   1.0000   1.0000   1.0000
     1.0000   1.0000   1.0000   1.0000   1.0000   1.0000   1.0000   1.0000
     1.0000   1.0000   1.0000   1.0000   1.0000   1.0000   1.0000   1.0000
     1.0000   1.0000   1.0000   1.0000   0.9994   0.2750   0.0000   0.0000
     0.0000   0.0000   0.0000   0.0000

          k =-0.2621 0.4540-0.0000 ( 10969 PWs)   bands (ev):

   -76.5363 -76.5359 -35.9482 -35.9345 -35.8815 -35.8716 -35.8694 -35.8559
   -32.5415 -32.5402  -8.5396  -7.8829  -7.7768  -7.5733  -7.4648  -7.1158
     2.5931   3.8530   3.9889   4.1078   4.1746   4.3377   4.5689   4.9727
     5.1449   6.2498   6.5506   7.2286   7.3315   7.6359   8.1074   8.3837
     8.4913   8.6059  10.7213  10.9892  11.2025  11.3915  11.5518  12.4481
    14.6645  16.0460  16.1384  17.4168

     occupation numbers 
     1.0000   1.0000   1.0000   1.0000   1.0000   1.0000   1.0000   1.0000
     1.0000   1.0000   1.0000   1.0000   1.0000   1.0000   1.0000   1.0000
     1.0000   1.0000   1.0000   1.0000   1.0000   1.0000   1.0000   1.0000
     1.0000   1.0000   1.0000   1.0000   1.0000   1.0000   1.0000   1.0000
     1.0000   1.0000   1.0000   1.0000   1.0000   0.6182   0.0012   0.0000
     0.0000   0.0000   0.0000   0.0000

          k =-0.3932-0.2270 0.2995 ( 10948 PWs)   bands (ev):

   -76.5364 -76.5358 -35.9522 -35.9365 -35.8897 -35.8695 -35.8625 -35.8506
   -32.5416 -32.5401  -8.6751  -7.9788  -7.9114  -7.4480  -7.1437  -7.0867
     2.5533   2.6802   2.9011   3.4713   4.8364   5.0351   5.5474   6.0806
     6.2088   6.4345   6.4667   6.8155   7.2423   7.7197   7.8258   8.3090
     8.3288   8.5325   9.2456  10.7359  11.0255  11.7483  12.1835  12.4983
    14.5964  15.5688  15.6766  18.4099

     occupation numbers 
     1.0000   1.0000   1.0000   1.0000   1.0000   1.0000   1.0000   1.0000
     1.0000   1.0000   1.0000   1.0000   1.0000   1.0000   1.0000   1.0000
     1.0000   1.0000   1.0000   1.0000   1.0000   1.0000   1.0000   1.0000
     1.0000   1.0000   1.0000   1.0000   1.0000   1.0000   1.0000   1.0000
     1.0000   1.0000   1.0000   1.0000   1.0000   0.0000   0.0000   0.0000
     0.0000   0.0000   0.0000   0.0000

          k =-0.3932 0.8324-0.0499 ( 10957 PWs)   bands (ev):

   -76.5363 -76.5359 -35.9504 -35.9399 -35.8885 -35.8718 -35.8588 -35.8519
   -32.5413 -32.5403  -8.5753  -8.1039  -7.8782  -7.3341  -7.2240  -7.1423
     2.5779   2.6663   2.7722   3.5660   5.0209   5.2903   5.6298   5.9558
     6.0352   6.2764   6.6636   6.9370   7.1930   7.4777   7.7364   7.9363
     8.3534   8.4963   9.5275  10.7554  11.0376  11.7632  12.3207  12.4412
    14.6058  15.2420  15.9977  18.2338

     occupation numbers 
     1.0000   1.0000   1.0000   1.0000   1.0000   1.0000   1.0000   1.0000
     1.0000   1.0000   1.0000   1.0000   1.0000   1.0000   1.0000   1.0000
     1.0000   1.0000   1.0000   1.0000   1.0000   1.0000   1.0000   1.0000
     1.0000   1.0000   1.0000   1.0000   1.0000   1.0000   1.0000   1.0000
     1.0000   1.0000   1.0000   1.0000   1.0000   0.0000   0.0000   0.0000
     0.0000   0.0000   0.0000   0.0000

          k =-0.3932 0.6810-0.0000 ( 10967 PWs)   bands (ev):

   -76.5362 -76.5360 -35.9464 -35.9423 -35.8847 -35.8747 -35.8573 -35.8560
   -32.5410 -32.5405  -8.4056  -8.2173  -7.7907  -7.4005  -7.2570  -7.2382
     2.5051   2.9502   3.0758   3.8787   4.7773   5.0692   5.4103   5.6865
     5.7728   6.0655   6.9059   7.1127   7.2205   7.2926   7.5266   7.9971
     8.3794   8.5036  10.1083  10.8309  11.1740  11.6414  12.2633  12.3943
    14.7806  15.0237  16.4211  17.7247

     occupation numbers 
     1.0000   1.0000   1.0000   1.0000   1.0000   1.0000   1.0000   1.0000
     1.0000   1.0000   1.0000   1.0000   1.0000   1.0000   1.0000   1.0000
     1.0000   1.0000   1.0000   1.0000   1.0000   1.0000   1.0000   1.0000
     1.0000   1.0000   1.0000   1.0000   1.0000   1.0000   1.0000   1.0000
     1.0000   1.0000   1.0000   1.0000   1.0000   0.0000   0.0000   0.0000
     0.0000   0.0000   0.0000   0.0000

          k = 0.5243 0.3027-0.3993 ( 10962 PWs)   bands (ev):

   -76.5363 -76.5359 -35.9515 -35.9405 -35.8900 -35.8714 -35.8576 -35.8504
   -32.5413 -32.5403  -8.6120  -8.1166  -7.9006  -7.3126  -7.1744  -7.1090
     2.4576   2.5638   2.6464   3.4590   5.1864   5.4784   5.8953   6.0941
     6.1822   6.4599   6.5273   6.7837   7.1111   7.4960   7.5299   8.2672
     8.2952   8.5055   9.1826  10.6113  10.9084  11.8010  12.3838  12.4852
    14.5821  15.2117  15.9384  18.4170

     occupation numbers 
     1.0000   1.0000   1.0000   1.0000   1.0000   1.0000   1.0000   1.0000
     1.0000   1.0000   1.0000   1.0000   1.0000   1.0000   1.0000   1.0000
     1.0000   1.0000   1.0000   1.0000   1.0000   1.0000   1.0000   1.0000
     1.0000   1.0000   1.0000   1.0000   1.0000   1.0000   1.0000   1.0000
     1.0000   1.0000   1.0000   1.0000   1.0000   0.0000   0.0000   0.0000
     0.0000   0.0000   0.0000   0.0000

          k = 0.0000 0.0000 0.1497 ( 10923 PWs)   bands (ev):

   -76.5367 -76.5355 -35.9584 -35.9212 -35.8865 -35.8865 -35.8536 -35.8536
   -32.5435 -32.5391  -9.0498  -7.9840  -7.9840  -7.0834  -7.0044  -7.0044
     2.6906   2.6906   3.0886   3.6479   3.6479   3.8368   5.4690   5.4690
     5.9818   7.3233   7.4940   7.6973   7.6973   8.2648   8.2648   8.3908
     8.6196   8.6196   9.8048   9.8048   9.9132  11.7530  11.7530  12.5673
    14.7049  14.7049  16.7677  18.2045

     occupation numbers 
     1.0000   1.0000   1.0000   1.0000   1.0000   1.0000   1.0000   1.0000
     1.0000   1.0000   1.0000   1.0000   1.0000   1.0000   1.0000   1.0000
     1.0000   1.0000   1.0000   1.0000   1.0000   1.0000   1.0000   1.0000
     1.0000   1.0000   1.0000   1.0000   1.0000   1.0000   1.0000   1.0000
     1.0000   1.0000   1.0000   1.0000   1.0000   0.0000   0.0000   0.0000
     0.0000   0.0000   0.0000   0.0000

          k = 0.0000-0.1513 0.1997 ( 10933 PWs)   bands (ev):

   -76.5367 -76.5356 -35.9562 -35.9238 -35.8863 -35.8824 -35.8577 -35.8536
   -32.5431 -32.5393  -8.9458  -7.9497  -7.9105  -7.2562  -7.1118  -7.0166
     2.6309   3.0309   3.3368   3.7065   3.8750   3.9599   5.1204   5.2732
     5.9016   6.9083   7.1376   7.5072   7.7915   8.0013   8.1838   8.3379
     8.5390   8.6674  10.0602  10.0774  10.4427  11.6641  12.0137  12.4643
    14.7401  14.7585  17.1158  17.7070

     occupation numbers 
     1.0000   1.0000   1.0000   1.0000   1.0000   1.0000   1.0000   1.0000
     1.0000   1.0000   1.0000   1.0000   1.0000   1.0000   1.0000   1.0000
     1.0000   1.0000   1.0000   1.0000   1.0000   1.0000   1.0000   1.0000
     1.0000   1.0000   1.0000   1.0000   1.0000   1.0000   1.0000   1.0000
     1.0000   1.0000   1.0000   1.0000   1.0000   0.0000   0.0000   0.0000
     0.0000   0.0000   0.0000   0.0000

          k = 0.0000-0.3027 0.2496 ( 10959 PWs)   bands (ev):

   -76.5365 -76.5357 -35.9517 -35.9290 -35.8836 -35.8764 -35.8638 -35.8561
   -32.5423 -32.5397  -8.7304  -7.8481  -7.8086  -7.5301  -7.2790  -7.1155
     2.7321   3.5506   3.7203   3.8719   4.0697   4.4028   4.7445   4.8707
     5.6355   6.0491   6.6509   7.0522   7.8866   7.8998   8.2043   8.3492
     8.5425   8.5614  10.4637  10.4931  11.0295  11.7162  11.9224  12.3122
    14.8627  15.1317  16.7954  17.6913

     occupation numbers 
     1.0000   1.0000   1.0000   1.0000   1.0000   1.0000   1.0000   1.0000
     1.0000   1.0000   1.0000   1.0000   1.0000   1.0000   1.0000   1.0000
     1.0000   1.0000   1.0000   1.0000   1.0000   1.0000   1.0000   1.0000
     1.0000   1.0000   1.0000   1.0000   1.0000   1.0000   1.0000   1.0000
     1.0000   1.0000   1.0000   1.0000   1.0000   0.0000   0.0000   0.0000
     0.0000   0.0000   0.0000   0.0000

          k = 0.0000 0.7567-0.0998 ( 10965 PWs)   bands (ev):

   -76.5363 -76.5359 -35.9455 -35.9359 -35.8788 -35.8709 -35.8694 -35.8607
   -32.5414 -32.5403  -8.4287  -7.9635  -7.7083  -7.5712  -7.4481  -7.2831
     3.0154   3.8221   3.8366   4.2275   4.2404   4.7000   4.7770   5.0487
     5.1011   5.3532   5.9923   6.3737   7.9835   8.0890   8.3137   8.3562
     8.4214   8.4515  10.8611  10.8931  11.5008  11.6638  11.7176  11.9824
    15.2150  15.8637  15.9595  17.0628

     occupation numbers 
     1.0000   1.0000   1.0000   1.0000   1.0000   1.0000   1.0000   1.0000
     1.0000   1.0000   1.0000   1.0000   1.0000   1.0000   1.0000   1.0000
     1.0000   1.0000   1.0000   1.0000   1.0000   1.0000   1.0000   1.0000
     1.0000   1.0000   1.0000   1.0000   1.0000   1.0000   1.0000   1.0000
     1.0000   1.0000   1.0000   1.0000   0.0243   0.0000   0.0000   0.0000
     0.0000   0.0000   0.0000   0.0000

          k = 0.0000 0.6054-0.0499 ( 10967 PWs)   bands (ev):

   -76.5362 -76.5360 -35.9433 -35.9383 -35.8777 -35.8727 -35.8667 -35.8626
   -32.5411 -32.5406  -8.3188  -8.0843  -7.7116  -7.4894  -7.4168  -7.3907
     3.3884   3.4794   3.5547   4.2844   4.4504   4.6260   4.8133   5.2261
     5.3722   5.3782   5.7542   6.0452   8.1104   8.1485   8.2248   8.3046
     8.3449   8.5512  10.8488  11.1227  11.4738  11.4891  11.7490  11.9665
    15.1775  15.8363  16.2837  16.7487

     occupation numbers 
     1.0000   1.0000   1.0000   1.0000   1.0000   1.0000   1.0000   1.0000
     1.0000   1.0000   1.0000   1.0000   1.0000   1.0000   1.0000   1.0000
     1.0000   1.0000   1.0000   1.0000   1.0000   1.0000   1.0000   1.0000
     1.0000   1.0000   1.0000   1.0000   1.0000   1.0000   1.0000   1.0000
     1.0000   1.0000   1.0000   1.0000   0.0790   0.0419   0.0000   0.0000
     0.0000   0.0000   0.0000   0.0000

          k = 0.0000 0.4540-0.0000 ( 10952 PWs)   bands (ev):

   -76.5364 -76.5358 -35.9500 -35.9312 -35.8834 -35.8732 -35.8663 -35.8568
   -32.5419 -32.5400  -8.6447  -7.8934  -7.6800  -7.6773  -7.2250  -7.2120
     3.0116   3.1617   3.8336   3.9810   4.1211   4.4035   4.5295   5.4891
     5.4975   6.0258   6.1495   6.8962   7.9776   7.9777   8.1782   8.3990
     8.4024   8.6410  10.3748  10.7980  11.0888  11.5603  11.9835  12.2039
    14.6998  15.5426  16.5766  17.4802

     occupation numbers 
     1.0000   1.0000   1.0000   1.0000   1.0000   1.0000   1.0000   1.0000
     1.0000   1.0000   1.0000   1.0000   1.0000   1.0000   1.0000   1.0000
     1.0000   1.0000   1.0000   1.0000   1.0000   1.0000   1.0000   1.0000
     1.0000   1.0000   1.0000   1.0000   1.0000   1.0000   1.0000   1.0000
     1.0000   1.0000   1.0000   1.0000   1.0000   0.0007   0.0000   0.0000
     0.0000   0.0000   0.0000   0.0000

          k = 0.0000 0.3027 0.0499 ( 10955 PWs)   bands (ev):

   -76.5366 -76.5356 -35.9552 -35.9253 -35.8871 -35.8793 -35.8604 -35.8531
   -32.5428 -32.5394  -8.8916  -7.9672  -7.8403  -7.3867  -7.0643  -7.0608
     2.7170   2.8627   3.5284   3.7304   3.9589   4.1248   4.6171   5.6718
     5.9107   6.7085   6.7686   7.5765   7.9102   8.0517   8.1628   8.3359
     8.5113   8.6552   9.8140  10.3360  10.6303  11.4814  12.0988  12.4288
    14.6012  14.9742  17.3008  17.4241

     occupation numbers 
     1.0000   1.0000   1.0000   1.0000   1.0000   1.0000   1.0000   1.0000
     1.0000   1.0000   1.0000   1.0000   1.0000   1.0000   1.0000   1.0000
     1.0000   1.0000   1.0000   1.0000   1.0000   1.0000   1.0000   1.0000
     1.0000   1.0000   1.0000   1.0000   1.0000   1.0000   1.0000   1.0000
     1.0000   1.0000   1.0000   1.0000   1.0000   0.0583   0.0000   0.0000
     0.0000   0.0000   0.0000   0.0000

          k =-0.1311-0.0757 0.2496 ( 10935 PWs)   bands (ev):

   -76.5366 -76.5356 -35.9553 -35.9255 -35.8870 -35.8792 -35.8601 -35.8531
   -32.5429 -32.5394  -8.8968  -7.9506  -7.8402  -7.4002  -7.0756  -7.0581
     2.6649   2.9038   3.5280   3.9133   4.0152   4.0697   4.6183   5.5138
     5.8562   6.8802   6.9064   7.5079   7.6897   7.9596   8.0027   8.2148
     8.5495   8.7190   9.8618  10.5154  10.7098  11.4918  12.1450  12.4229
    14.7152  14.8802  17.2623  17.3709

     occupation numbers 
     1.0000   1.0000   1.0000   1.0000   1.0000   1.0000   1.0000   1.0000
     1.0000   1.0000   1.0000   1.0000   1.0000   1.0000   1.0000   1.0000
     1.0000   1.0000   1.0000   1.0000   1.0000   1.0000   1.0000   1.0000
     1.0000   1.0000   1.0000   1.0000   1.0000   1.0000   1.0000   1.0000
     1.0000   1.0000   1.0000   1.0000   1.0000   0.0371   0.0000   0.0000
     0.0000   0.0000   0.0000   0.0000

          k =-0.1311-0.2270 0.2995 ( 10946 PWs)   bands (ev):

   -76.5365 -76.5357 -35.9525 -35.9299 -35.8863 -35.8732 -35.8651 -35.8536
   -32.5423 -32.5397  -8.7515  -7.8976  -7.7322  -7.6220  -7.2066  -7.0797
     2.6136   3.1507   3.6569   3.9512   4.2231   4.4145   4.5962   5.3460
     5.8561   6.1385   6.7778   7.4211   7.4980   7.8691   7.9595   8.2048
     8.4669   8.6084  10.0415  10.8516  11.1593  11.4033  12.0595  12.4142
    14.7354  15.2313  16.5388  17.9220

     occupation numbers 
     1.0000   1.0000   1.0000   1.0000   1.0000   1.0000   1.0000   1.0000
     1.0000   1.0000   1.0000   1.0000   1.0000   1.0000   1.0000   1.0000
     1.0000   1.0000   1.0000   1.0000   1.0000   1.0000   1.0000   1.0000
     1.0000   1.0000   1.0000   1.0000   1.0000   1.0000   1.0000   1.0000
     1.0000   1.0000   1.0000   1.0000   1.0000   0.5222   0.0000   0.0000
     0.0000   0.0000   0.0000   0.0000

          k =-0.1311 0.8324-0.0499 ( 10971 PWs)   bands (ev):

   -76.5363 -76.5359 -35.9480 -35.9359 -35.8830 -35.8712 -35.8666 -35.8563
   -32.5416 -32.5402  -8.5263  -7.9532  -7.7859  -7.5203  -7.3906  -7.1792
     2.6979   3.3727   3.5887   4.0306   4.3595   4.7991   5.0496   5.2310
     5.4473   5.7384   6.3223   6.9998   7.5103   7.8767   8.0090   8.2564
     8.3070   8.4914  10.4270  11.0103  11.3440  11.6627  11.8700  12.2823
    14.8752  15.7531  15.9132  17.5242

     occupation numbers 
     1.0000   1.0000   1.0000   1.0000   1.0000   1.0000   1.0000   1.0000
     1.0000   1.0000   1.0000   1.0000   1.0000   1.0000   1.0000   1.0000
     1.0000   1.0000   1.0000   1.0000   1.0000   1.0000   1.0000   1.0000
     1.0000   1.0000   1.0000   1.0000   1.0000   1.0000   1.0000   1.0000
     1.0000   1.0000   1.0000   1.0000   0.9012   0.0000   0.0000   0.0000
     0.0000   0.0000   0.0000   0.0000

          k =-0.1311 0.6810-0.0000 ( 10965 PWs)   bands (ev):

   -76.5361 -76.5361 -35.9423 -35.9422 -35.8779 -35.8775 -35.8609 -35.8606
   -32.5409 -32.5408  -8.2518  -8.2416  -7.6883  -7.5364  -7.3393  -7.3226
     2.9451   2.9978   3.8819   4.2624   4.4269   4.5892   4.9884   5.2698
     5.5041   5.7641   6.2834   6.4421   7.7019   7.8196   8.0030   8.1582
     8.3861   8.4569  10.7801  10.9424  11.3729  11.5616  12.0066  12.1241
    15.0925  15.2834  16.6628  16.8994

     occupation numbers 
     1.0000   1.0000   1.0000   1.0000   1.0000   1.0000   1.0000   1.0000
     1.0000   1.0000   1.0000   1.0000   1.0000   1.0000   1.0000   1.0000
     1.0000   1.0000   1.0000   1.0000   1.0000   1.0000   1.0000   1.0000
     1.0000   1.0000   1.0000   1.0000   1.0000   1.0000   1.0000   1.0000
     1.0000   1.0000   1.0000   1.0000   0.7538   0.0006   0.0000   0.0000
     0.0000   0.0000   0.0000   0.0000

          k =-0.1311 0.5297 0.0499 ( 10954 PWs)   bands (ev):

   -76.5363 -76.5359 -35.9480 -35.9358 -35.8829 -35.8716 -35.8669 -35.8561
   -32.5414 -32.5403  -8.5207  -7.9560  -7.7949  -7.5208  -7.3944  -7.1613
     2.7032   3.4063   3.5887   3.9098   4.4194   4.7215   4.9250   5.2492
     5.3239   6.0475   6.3429   7.0170   7.5222   7.8784   8.0257   8.2307
     8.3382   8.5856  10.4740  10.9953  11.3628  11.4621  11.7423  12.3607
    14.6988  15.8631  16.1048  17.4716

     occupation numbers 
     1.0000   1.0000   1.0000   1.0000   1.0000   1.0000   1.0000   1.0000
     1.0000   1.0000   1.0000   1.0000   1.0000   1.0000   1.0000   1.0000
     1.0000   1.0000   1.0000   1.0000   1.0000   1.0000   1.0000   1.0000
     1.0000   1.0000   1.0000   1.0000   1.0000   1.0000   1.0000   1.0000
     1.0000   1.0000   1.0000   1.0000   0.8151   0.1214   0.0000   0.0000
     0.0000   0.0000   0.0000   0.0000

          k =-0.1311 0.3784 0.0998 ( 10947 PWs)   bands (ev):

   -76.5365 -76.5357 -35.9524 -35.9297 -35.8863 -35.8734 -35.8654 -35.8536
   -32.5422 -32.5398  -8.7457  -7.9182  -7.7329  -7.6066  -7.2136  -7.0621
     2.6335   3.1184   3.6497   3.9438   4.1761   4.3365   4.5510   5.3394
     6.0491   6.1254   6.6958   7.3327   7.6254   7.9934   8.1236   8.2545
     8.3845   8.6818   9.9897  10.7416  11.1051  11.3544  11.9564  12.4474
    14.5794  15.3953  16.5750  17.9620

     occupation numbers 
     1.0000   1.0000   1.0000   1.0000   1.0000   1.0000   1.0000   1.0000
     1.0000   1.0000   1.0000   1.0000   1.0000   1.0000   1.0000   1.0000
     1.0000   1.0000   1.0000   1.0000   1.0000   1.0000   1.0000   1.0000
     1.0000   1.0000   1.0000   1.0000   1.0000   1.0000   1.0000   1.0000
     1.0000   1.0000   1.0000   1.0000   1.0000   0.8581   0.0000   0.0000
     0.0000   0.0000   0.0000   0.0000

          k =-0.2621-0.1513 0.3494 ( 10956 PWs)   bands (ev):

   -76.5364 -76.5358 -35.9520 -35.9332 -35.8879 -35.8677 -35.8676 -35.8524
   -32.5420 -32.5399  -8.7012  -7.9087  -7.8254  -7.5742  -7.1405  -7.1334
     2.6448   2.8734   3.3859   3.5851   4.5398   4.7016   5.1453   5.7628
     5.8860   6.3338   6.3583   7.2901   7.4376   7.8459   7.8560   8.0254
     8.4364   8.4739   9.7932  11.0346  11.0788  11.5483  12.1383  12.4388
    14.6909  15.4437  15.9931  18.1483

     occupation numbers 
     1.0000   1.0000   1.0000   1.0000   1.0000   1.0000   1.0000   1.0000
     1.0000   1.0000   1.0000   1.0000   1.0000   1.0000   1.0000   1.0000
     1.0000   1.0000   1.0000   1.0000   1.0000   1.0000   1.0000   1.0000
     1.0000   1.0000   1.0000   1.0000   1.0000   1.0000   1.0000   1.0000
     1.0000   1.0000   1.0000   1.0000   1.0000   0.0015   0.0000   0.0000
     0.0000   0.0000   0.0000   0.0000

          k =-0.2621 0.9080-0.0000 ( 10956 PWs)   bands (ev):

   -76.5363 -76.5359 -35.9499 -35.9377 -35.8869 -35.8713 -35.8622 -35.8531
   -32.5415 -32.5402  -8.5807  -8.0242  -7.8534  -7.4233  -7.2761  -7.1396
     2.5831   2.9064   3.1048   3.6759   4.7052   5.0997   5.4192   5.6980
     5.8931   6.1856   6.4623   7.0292   7.3475   7.6247   7.8924   7.9738
     8.1701   8.4460   9.9526  10.9416  11.1555  11.7258  12.1431  12.4369
    14.7004  15.4638  15.8782  17.9849

     occupation numbers 
     1.0000   1.0000   1.0000   1.0000   1.0000   1.0000   1.0000   1.0000
     1.0000   1.0000   1.0000   1.0000   1.0000   1.0000   1.0000   1.0000
     1.0000   1.0000   1.0000   1.0000   1.0000   1.0000   1.0000   1.0000
     1.0000   1.0000   1.0000   1.0000   1.0000   1.0000   1.0000   1.0000
     1.0000   1.0000   1.0000   1.0000   1.0000   0.0000   0.0000   0.0000
     0.0000   0.0000   0.0000   0.0000

          k =-0.2621 0.7567 0.0499 ( 10966 PWs)   bands (ev):

   -76.5362 -76.5360 -35.9462 -35.9420 -35.8833 -35.8757 -35.8582 -35.8559
   -32.5410 -32.5405  -8.4007  -8.2058  -7.7518  -7.4726  -7.2725  -7.2185
     2.6185   2.6710   3.5394   3.9741   4.4971   4.9175   5.3494   5.6111
     5.8737   6.1752   6.7111   6.9963   7.2627   7.3905   7.6801   8.0289
     8.2025   8.4372  10.3692  10.8655  11.2199  11.5699  12.2586  12.3441
    14.8355  15.0732  16.4800  17.5145

     occupation numbers 
     1.0000   1.0000   1.0000   1.0000   1.0000   1.0000   1.0000   1.0000
     1.0000   1.0000   1.0000   1.0000   1.0000   1.0000   1.0000   1.0000
     1.0000   1.0000   1.0000   1.0000   1.0000   1.0000   1.0000   1.0000
     1.0000   1.0000   1.0000   1.0000   1.0000   1.0000   1.0000   1.0000
     1.0000   1.0000   1.0000   1.0000   0.9999   0.0003   0.0000   0.0000
     0.0000   0.0000   0.0000   0.0000

          k =-0.2621 0.6054 0.0998 ( 10954 PWs)   bands (ev):

   -76.5362 -76.5360 -35.9454 -35.9412 -35.8801 -35.8779 -35.8607 -35.8562
   -32.5410 -32.5406  -8.3716  -8.1804  -7.6848  -7.5756  -7.3510  -7.1792
     2.5473   2.9541   3.9676   4.1471   4.3299   4.5268   5.0450   5.3645
     5.6951   6.1417   6.8382   7.0262   7.1575   7.5027   7.7694   8.1529
     8.3840   8.4137  10.7238  10.8188  11.2555  11.3544  12.0568  12.4104
    14.8027  15.2148  16.8329  17.1307

     occupation numbers 
     1.0000   1.0000   1.0000   1.0000   1.0000   1.0000   1.0000   1.0000
     1.0000   1.0000   1.0000   1.0000   1.0000   1.0000   1.0000   1.0000
     1.0000   1.0000   1.0000   1.0000   1.0000   1.0000   1.0000   1.0000
     1.0000   1.0000   1.0000   1.0000   1.0000   1.0000   1.0000   1.0000
     1.0000   1.0000   1.0000   1.0000   0.9991   0.8578   0.0000   0.0000
     0.0000   0.0000   0.0000   0.0000

          k =-0.2621 0.4540 0.1497 ( 10951 PWs)   bands (ev):

   -76.5363 -76.5359 -35.9480 -35.9358 -35.8830 -35.8716 -35.8668 -35.8562
   -32.5415 -32.5402  -8.5212  -7.9500  -7.8017  -7.5077  -7.4125  -7.1550
     2.7037   3.3837   3.5738   3.9906   4.4646   4.7361   4.8321   5.1903
     5.3181   6.0911   6.3321   7.0493   7.4094   7.8539   8.1516   8.2838
     8.3608   8.5706  10.3981  11.0329  11.2369  11.4662  11.8195  12.3956
    14.7079  15.7887  16.0952  17.5836

     occupation numbers 
     1.0000   1.0000   1.0000   1.0000   1.0000   1.0000   1.0000   1.0000
     1.0000   1.0000   1.0000   1.0000   1.0000   1.0000   1.0000   1.0000
     1.0000   1.0000   1.0000   1.0000   1.0000   1.0000   1.0000   1.0000
     1.0000   1.0000   1.0000   1.0000   1.0000   1.0000   1.0000   1.0000
     1.0000   1.0000   1.0000   1.0000   0.9998   0.1051   0.0000   0.0000
     0.0000   0.0000   0.0000   0.0000

          k = 0.6553 0.3784-0.3494 ( 10966 PWs)   bands (ev):

   -76.5363 -76.5359 -35.9504 -35.9399 -35.8885 -35.8718 -35.8588 -35.8519
   -32.5413 -32.5403  -8.5776  -8.1057  -7.8723  -7.3371  -7.2008  -7.1686
     2.5705   2.6641   2.7978   3.5585   5.0353   5.2469   5.7850   5.9419
     6.0447   6.3269   6.6425   6.8146   7.1734   7.6025   7.6515   7.9115
     8.2007   8.3959   9.6898  10.7880  11.0614  11.7804  12.3273  12.4387
    14.6425  15.2583  15.9504  18.1670

     occupation numbers 
     1.0000   1.0000   1.0000   1.0000   1.0000   1.0000   1.0000   1.0000
     1.0000   1.0000   1.0000   1.0000   1.0000   1.0000   1.0000   1.0000
     1.0000   1.0000   1.0000   1.0000   1.0000   1.0000   1.0000   1.0000
     1.0000   1.0000   1.0000   1.0000   1.0000   1.0000   1.0000   1.0000
     1.0000   1.0000   1.0000   1.0000   1.0000   0.0000   0.0000   0.0000
     0.0000   0.0000   0.0000   0.0000

          k = 0.6553 0.2270-0.2995 ( 10956 PWs)   bands (ev):

   -76.5363 -76.5359 -35.9491 -35.9414 -35.8872 -35.8734 -35.8574 -35.8528
   -32.5411 -32.5404  -8.5146  -8.1657  -7.8396  -7.3282  -7.2658  -7.1572
     2.4839   2.5752   3.0603   3.6466   4.8835   5.3586   5.5946   5.7999
     6.1407   6.3266   6.7402   6.9595   7.0944   7.4967   7.7155   7.8528
     8.0985   8.4033   9.8918  10.7669  11.0774  11.6936  12.3304  12.4498
    14.6482  15.1334  16.1990  18.0008

     occupation numbers 
     1.0000   1.0000   1.0000   1.0000   1.0000   1.0000   1.0000   1.0000
     1.0000   1.0000   1.0000   1.0000   1.0000   1.0000   1.0000   1.0000
     1.0000   1.0000   1.0000   1.0000   1.0000   1.0000   1.0000   1.0000
     1.0000   1.0000   1.0000   1.0000   1.0000   1.0000   1.0000   1.0000
     1.0000   1.0000   1.0000   1.0000   1.0000   0.0000   0.0000   0.0000
     0.0000   0.0000   0.0000   0.0000

          k = 0.6553 0.0757-0.2496 ( 10968 PWs)   bands (ev):

   -76.5362 -76.5360 -35.9462 -35.9419 -35.8833 -35.8758 -35.8583 -35.8559
   -32.5410 -32.5406  -8.3985  -8.2047  -7.7555  -7.4819  -7.2715  -7.2068
     2.6188   2.6701   3.5385   3.9537   4.5345   4.9231   5.3017   5.4898
     5.9815   6.0624   6.8211   7.0749   7.1860   7.4312   7.7426   8.0528
     8.1856   8.4520  10.3524  10.8707  11.2003  11.4666  12.2722  12.3685
    14.7781  15.0733  16.5631  17.5399

     occupation numbers 
     1.0000   1.0000   1.0000   1.0000   1.0000   1.0000   1.0000   1.0000
     1.0000   1.0000   1.0000   1.0000   1.0000   1.0000   1.0000   1.0000
     1.0000   1.0000   1.0000   1.0000   1.0000   1.0000   1.0000   1.0000
     1.0000   1.0000   1.0000   1.0000   1.0000   1.0000   1.0000   1.0000
     1.0000   1.0000   1.0000   1.0000   1.0000   0.1035   0.0000   0.0000
     0.0000   0.0000   0.0000   0.0000

          k = 0.6553-0.0757-0.1997 ( 10970 PWs)   bands (ev):

   -76.5361 -76.5361 -35.9422 -35.9422 -35.8778 -35.8778 -35.8608 -35.8608
   -32.5408 -32.5408  -8.2447  -8.2447  -7.6302  -7.6302  -7.3136  -7.3136
     2.9686   2.9686   4.0578   4.0578   4.5415   4.5415   5.0224   5.0224
     5.6268   5.6268   6.4663   6.4663   7.6658   7.6658   8.2086   8.2086
     8.4491   8.4491  10.8471  10.8471  11.3247  11.3247  12.1534  12.1534
    15.1268  15.1268  16.8745  16.8745

     occupation numbers 
     1.0000   1.0000   1.0000   1.0000   1.0000   1.0000   1.0000   1.0000
     1.0000   1.0000   1.0000   1.0000   1.0000   1.0000   1.0000   1.0000
     1.0000   1.0000   1.0000   1.0000   1.0000   1.0000   1.0000   1.0000
     1.0000   1.0000   1.0000   1.0000   1.0000   1.0000   1.0000   1.0000
     1.0000   1.0000   1.0000   1.0000   0.9543   0.9543   0.0000   0.0000
     0.0000   0.0000   0.0000   0.0000

          k = 0.5243 0.3027-0.2496 ( 10965 PWs)   bands (ev):

   -76.5363 -76.5359 -35.9504 -35.9399 -35.8885 -35.8719 -35.8589 -35.8519
   -32.5413 -32.5403  -8.5750  -8.1056  -7.8779  -7.3365  -7.2041  -7.1588
     2.5743   2.6724   2.7732   3.5436   5.0584   5.3386   5.6250   5.8494
     6.0777   6.1489   6.8526   7.0605   7.1058   7.5682   7.6241   7.9912
     8.1881   8.4115   9.6456  10.7462  11.0895  11.7674  12.2863  12.4177
    14.5976  15.2794  16.0138  18.1741

     occupation numbers 
     1.0000   1.0000   1.0000   1.0000   1.0000   1.0000   1.0000   1.0000
     1.0000   1.0000   1.0000   1.0000   1.0000   1.0000   1.0000   1.0000
     1.0000   1.0000   1.0000   1.0000   1.0000   1.0000   1.0000   1.0000
     1.0000   1.0000   1.0000   1.0000   1.0000   1.0000   1.0000   1.0000
     1.0000   1.0000   1.0000   1.0000   1.0000   0.0000   0.0000   0.0000
     0.0000   0.0000   0.0000   0.0000

          k = 0.5243 0.1513-0.1997 ( 10966 PWs)   bands (ev):

   -76.5363 -76.5359 -35.9499 -35.9376 -35.8869 -35.8715 -35.8623 -35.8531
   -32.5414 -32.5402  -8.5762  -8.0239  -7.8633  -7.4197  -7.2828  -7.1240
     2.5871   2.9112   3.0775   3.6484   4.7938   5.0661   5.2401   5.6761
     5.8338   6.2199   6.6195   6.9703   7.5042   7.6891   7.9256   7.9969
     8.1564   8.4737   9.9002  10.8718  11.1840  11.6578  12.0699  12.4471
    14.6041  15.4973  15.9974  18.0178

     occupation numbers 
     1.0000   1.0000   1.0000   1.0000   1.0000   1.0000   1.0000   1.0000
     1.0000   1.0000   1.0000   1.0000   1.0000   1.0000   1.0000   1.0000
     1.0000   1.0000   1.0000   1.0000   1.0000   1.0000   1.0000   1.0000
     1.0000   1.0000   1.0000   1.0000   1.0000   1.0000   1.0000   1.0000
     1.0000   1.0000   1.0000   1.0000   1.0000   0.0000   0.0000   0.0000
     0.0000   0.0000   0.0000   0.0000

          k = 0.3932 0.2270-0.1497 ( 10931 PWs)   bands (ev):

   -76.5364 -76.5358 -35.9519 -35.9331 -35.8879 -35.8679 -35.8678 -35.8524
   -32.5419 -32.5400  -8.6954  -7.9343  -7.8098  -7.5738  -7.1473  -7.1124
     2.6850   2.8137   3.3831   3.5576   4.5079   4.6821   5.0385   5.8552
     5.9165   6.2512   6.3964   7.2608   7.6161   7.8624   7.9488   8.2404
     8.2598   8.5533   9.7110  10.8604  11.1785  11.4926  12.0558  12.4044
    14.5815  15.5741  16.0446  18.1244

     occupation numbers 
     1.0000   1.0000   1.0000   1.0000   1.0000   1.0000   1.0000   1.0000
     1.0000   1.0000   1.0000   1.0000   1.0000   1.0000   1.0000   1.0000
     1.0000   1.0000   1.0000   1.0000   1.0000   1.0000   1.0000   1.0000
     1.0000   1.0000   1.0000   1.0000   1.0000   1.0000   1.0000   1.0000
     1.0000   1.0000   1.0000   1.0000   1.0000   0.0358   0.0000   0.0000
     0.0000   0.0000   0.0000   0.0000

          k = 0.0000 0.0000 0.2995 ( 10949 PWs)   bands (ev):

   -76.5366 -76.5356 -35.9542 -35.9258 -35.8826 -35.8826 -35.8575 -35.8575
   -32.5428 -32.5395  -8.8579  -7.8827  -7.8827  -7.3665  -7.1360  -7.1360
     2.9679   2.9679   3.5673   3.9609   3.9609   4.0091   5.0582   5.0582
     5.5078   6.8705   6.8705   7.1016   7.4959   8.1249   8.1757   8.1757
     8.6324   8.6324  10.3757  10.5249  10.5249  11.9919  11.9919  12.2471
    14.8267  14.8267  17.3433  17.6369

     occupation numbers 
     1.0000   1.0000   1.0000   1.0000   1.0000   1.0000   1.0000   1.0000
     1.0000   1.0000   1.0000   1.0000   1.0000   1.0000   1.0000   1.0000
     1.0000   1.0000   1.0000   1.0000   1.0000   1.0000   1.0000   1.0000
     1.0000   1.0000   1.0000   1.0000   1.0000   1.0000   1.0000   1.0000
     1.0000   1.0000   1.0000   1.0000   1.0000   0.0000   0.0000   0.0000
     0.0000   0.0000   0.0000   0.0000

          k = 0.0000-0.1513 0.3494 ( 10960 PWs)   bands (ev):

   -76.5365 -76.5357 -35.9518 -35.9291 -35.8834 -35.8764 -35.8638 -35.8559
   -32.5424 -32.5398  -8.7350  -7.8454  -7.7745  -7.5748  -7.2790  -7.1126
     2.7261   3.4702   3.8589   4.0022   4.1098   4.4108   4.6147   4.7975
     5.6621   6.0409   6.8013   7.1960   7.5142   7.8535   8.1032   8.1970
     8.5201   8.6281  10.5530  10.6971  11.0531  11.7381  11.9071  12.3550
    14.8208  15.1767  16.8629  17.6324

     occupation numbers 
     1.0000   1.0000   1.0000   1.0000   1.0000   1.0000   1.0000   1.0000
     1.0000   1.0000   1.0000   1.0000   1.0000   1.0000   1.0000   1.0000
     1.0000   1.0000   1.0000   1.0000   1.0000   1.0000   1.0000   1.0000
     1.0000   1.0000   1.0000   1.0000   1.0000   1.0000   1.0000   1.0000
     1.0000   1.0000   1.0000   1.0000   1.0000   0.0000   0.0000   0.0000
     0.0000   0.0000   0.0000   0.0000

          k = 0.0000 0.9080-0.0000 ( 10977 PWs)   bands (ev):

   -76.5363 -76.5359 -35.9484 -35.9348 -35.8815 -35.8711 -35.8691 -35.8560
   -32.5417 -32.5402  -8.5485  -7.8857  -7.7342  -7.6114  -7.4461  -7.1415
     2.5882   3.8405   3.8724   4.1795   4.2473   4.5551   4.5756   5.1204
     5.1817   5.8483   6.6241   7.2048   7.4445   7.4802   8.0467   8.2780
     8.3969   8.4540  10.8578  10.8691  11.4637  11.6197  11.6478  12.3283
    14.8811  15.8691  16.0290  17.3070

     occupation numbers 
     1.0000   1.0000   1.0000   1.0000   1.0000   1.0000   1.0000   1.0000
     1.0000   1.0000   1.0000   1.0000   1.0000   1.0000   1.0000   1.0000
     1.0000   1.0000   1.0000   1.0000   1.0000   1.0000   1.0000   1.0000
     1.0000   1.0000   1.0000   1.0000   1.0000   1.0000   1.0000   1.0000
     1.0000   1.0000   1.0000   1.0000   0.1150   0.0000   0.0000   0.0000
     0.0000   0.0000   0.0000   0.0000

          k = 0.0000 0.7567 0.0499 ( 10952 PWs)   bands (ev):

   -76.5361 -76.5361 -35.9440 -35.9412 -35.8783 -35.8776 -35.8620 -35.8581
   -32.5410 -32.5406  -8.3235  -8.1893  -7.6905  -7.4764  -7.4500  -7.2445
     2.6557   3.3668   3.5303   4.3015   4.6638   4.6695   4.9557   5.0308
     5.7150   5.8810   6.2187   6.8041   7.4624   7.6722   7.9961   8.0901
     8.2746   8.4518  10.7487  11.0140  11.4390  11.5743  11.9709  12.1814
    15.0557  15.2965  16.6740  16.8524

     occupation numbers 
     1.0000   1.0000   1.0000   1.0000   1.0000   1.0000   1.0000   1.0000
     1.0000   1.0000   1.0000   1.0000   1.0000   1.0000   1.0000   1.0000
     1.0000   1.0000   1.0000   1.0000   1.0000   1.0000   1.0000   1.0000
     1.0000   1.0000   1.0000   1.0000   1.0000   1.0000   1.0000   1.0000
     1.0000   1.0000   1.0000   1.0000   0.2462   0.0002   0.0000   0.0000
     0.0000   0.0000   0.0000   0.0000

          k = 0.0000 0.6054 0.0998 ( 10964 PWs)   bands (ev):

   -76.5363 -76.5359 -35.9473 -35.9387 -35.8842 -35.8727 -35.8622 -35.8562
   -32.5412 -32.5404  -8.4702  -8.0825  -7.8121  -7.4010  -7.2850  -7.2847
     2.9072   2.9865   3.1140   3.8113   4.7793   5.0266   5.2510   5.4722
     5.6908   5.7840   6.3337   6.9233   7.6350   7.7043   7.9110   8.0466
     8.1541   8.5224  10.2766  10.9681  11.3952  11.6553  12.0326  12.2322
    14.7390  15.4950  16.1843  17.5511

     occupation numbers 
     1.0000   1.0000   1.0000   1.0000   1.0000   1.0000   1.0000   1.0000
     1.0000   1.0000   1.0000   1.0000   1.0000   1.0000   1.0000   1.0000
     1.0000   1.0000   1.0000   1.0000   1.0000   1.0000   1.0000   1.0000
     1.0000   1.0000   1.0000   1.0000   1.0000   1.0000   1.0000   1.0000
     1.0000   1.0000   1.0000   1.0000   0.5884   0.0000   0.0000   0.0000
     0.0000   0.0000   0.0000   0.0000

          k =-0.1311-0.0757 0.3993 ( 10945 PWs)   bands (ev):

   -76.5364 -76.5358 -35.9502 -35.9315 -35.8834 -35.8729 -35.8658 -35.8568
   -32.5421 -32.5400  -8.6557  -7.8361  -7.7216  -7.6789  -7.2569  -7.2030
     2.9271   3.2501   3.8838   3.9750   4.3013   4.5297   4.6482   5.1258
     5.4438   6.1265   6.1694   7.0340   7.6131   7.8925   8.0302   8.1556
     8.5221   8.5576  10.4366  11.0898  11.2369  11.5759  12.1149  12.2127
    14.8709  15.3430  16.4775  17.5825

     occupation numbers 
     1.0000   1.0000   1.0000   1.0000   1.0000   1.0000   1.0000   1.0000
     1.0000   1.0000   1.0000   1.0000   1.0000   1.0000   1.0000   1.0000
     1.0000   1.0000   1.0000   1.0000   1.0000   1.0000   1.0000   1.0000
     1.0000   1.0000   1.0000   1.0000   1.0000   1.0000   1.0000   1.0000
     1.0000   1.0000   1.0000   1.0000   0.9998   0.0002   0.0000   0.0000
     0.0000   0.0000   0.0000   0.0000

          k =-0.1311 0.9837 0.0499 ( 10957 PWs)   bands (ev):

   -76.5363 -76.5359 -35.9482 -35.9360 -35.8828 -35.8712 -35.8666 -35.8561
   -32.5416 -32.5403  -8.5307  -7.9505  -7.7744  -7.5311  -7.3971  -7.1812
     2.6969   3.3898   3.6480   3.9761   4.3967   4.8759   4.9526   5.3034
     5.4556   5.7371   6.3739   7.1370   7.3658   7.6437   7.9177   8.1759
     8.2992   8.4752  10.5567  11.1363  11.3923  11.6402  11.8922  12.3281
    14.8716  15.7881  15.8921  17.4339

     occupation numbers 
     1.0000   1.0000   1.0000   1.0000   1.0000   1.0000   1.0000   1.0000
     1.0000   1.0000   1.0000   1.0000   1.0000   1.0000   1.0000   1.0000
     1.0000   1.0000   1.0000   1.0000   1.0000   1.0000   1.0000   1.0000
     1.0000   1.0000   1.0000   1.0000   1.0000   1.0000   1.0000   1.0000
     1.0000   1.0000   1.0000   1.0000   0.6113   0.0000   0.0000   0.0000
     0.0000   0.0000   0.0000   0.0000

          k =-0.1311 0.8324 0.0998 ( 10966 PWs)   bands (ev):

   -76.5362 -76.5360 -35.9455 -35.9413 -35.8801 -35.8775 -35.8605 -35.8563
   -32.5411 -32.5406  -8.3779  -8.1848  -7.6642  -7.5648  -7.3609  -7.2001
     2.5498   2.9517   3.9564   4.2150   4.3483   4.4853   5.1415   5.3632
     5.9531   6.1929   6.4330   7.1135   7.1612   7.3666   7.7308   8.0865
     8.2663   8.3588  10.7522  10.9078  11.3280  11.5602  12.0994  12.3206
    14.9278  15.2169  16.6305  17.0560

     occupation numbers 
     1.0000   1.0000   1.0000   1.0000   1.0000   1.0000   1.0000   1.0000
     1.0000   1.0000   1.0000   1.0000   1.0000   1.0000   1.0000   1.0000
     1.0000   1.0000   1.0000   1.0000   1.0000   1.0000   1.0000   1.0000
     1.0000   1.0000   1.0000   1.0000   1.0000   1.0000   1.0000   1.0000
     1.0000   1.0000   1.0000   1.0000   0.9473   0.0007   0.0000   0.0000
     0.0000   0.0000   0.0000   0.0000

          k =-0.1311 0.6810 0.1497 ( 10966 PWs)   bands (ev):

   -76.5362 -76.5360 -35.9462 -35.9420 -35.8832 -35.8759 -35.8583 -35.8558
   -32.5410 -32.5406  -8.3998  -8.2071  -7.7577  -7.4562  -7.2849  -7.2161
     2.6136   2.6781   3.5475   3.9053   4.5764   4.9291   5.3453   5.5583
     5.8915   6.1446   6.8226   7.0225   7.2434   7.3699   7.7625   7.9290
     8.0907   8.4485  10.4181  10.8911  11.3035  11.5089  12.2033  12.3499
    14.7774  15.1532  16.5396  17.4223

     occupation numbers 
     1.0000   1.0000   1.0000   1.0000   1.0000   1.0000   1.0000   1.0000
     1.0000   1.0000   1.0000   1.0000   1.0000   1.0000   1.0000   1.0000
     1.0000   1.0000   1.0000   1.0000   1.0000   1.0000   1.0000   1.0000
     1.0000   1.0000   1.0000   1.0000   1.0000   1.0000   1.0000   1.0000
     1.0000   1.0000   1.0000   1.0000   0.9834   0.0162   0.0000   0.0000
     0.0000   0.0000   0.0000   0.0000

          k = 0.7864 0.4540-0.2995 ( 10950 PWs)   bands (ev):

   -76.5363 -76.5359 -35.9474 -35.9389 -35.8841 -35.8724 -35.8620 -35.8561
   -32.5413 -32.5404  -8.4784  -8.0822  -7.7917  -7.4026  -7.3180  -7.2764
     2.8804   2.9708   3.1977   3.8712   4.7626   4.9668   5.3536   5.5647
     5.7486   5.9015   6.1186   7.0270   7.3832   7.5071   7.8902   7.9442
     8.1951   8.4538  10.3678  11.0962  11.3854  11.7238  12.1493  12.2709
    14.8649  15.4215  16.0086  17.5573

     occupation numbers 
     1.0000   1.0000   1.0000   1.0000   1.0000   1.0000   1.0000   1.0000
     1.0000   1.0000   1.0000   1.0000   1.0000   1.0000   1.0000   1.0000
     1.0000   1.0000   1.0000   1.0000   1.0000   1.0000   1.0000   1.0000
     1.0000   1.0000   1.0000   1.0000   1.0000   1.0000   1.0000   1.0000
     1.0000   1.0000   1.0000   1.0000   0.6652   0.0000   0.0000   0.0000
     0.0000   0.0000   0.0000   0.0000

          k = 0.7864 0.3027-0.2496 ( 10959 PWs)   bands (ev):

   -76.5362 -76.5360 -35.9463 -35.9420 -35.8832 -35.8757 -35.8582 -35.8558
   -32.5410 -32.5406  -8.4040  -8.2091  -7.7416  -7.4630  -7.2852  -7.2260
     2.6204   2.6733   3.5715   3.9399   4.5228   4.9606   5.3364   5.5519
     6.0925   6.2293   6.7046   7.0311   7.0842   7.2362   7.7160   7.9373
     8.1006   8.4093  10.4673  10.9198  11.3179  11.5867  12.2462  12.3491
    14.8522  15.1218  16.4367  17.3991

     occupation numbers 
     1.0000   1.0000   1.0000   1.0000   1.0000   1.0000   1.0000   1.0000
     1.0000   1.0000   1.0000   1.0000   1.0000   1.0000   1.0000   1.0000
     1.0000   1.0000   1.0000   1.0000   1.0000   1.0000   1.0000   1.0000
     1.0000   1.0000   1.0000   1.0000   1.0000   1.0000   1.0000   1.0000
     1.0000   1.0000   1.0000   1.0000   0.9664   0.0001   0.0000   0.0000
     0.0000   0.0000   0.0000   0.0000

          k = 0.7864 0.1513-0.1997 ( 10962 PWs)   bands (ev):

   -76.5361 -76.5361 -35.9445 -35.9445 -35.8800 -35.8800 -35.8562 -35.8562
   -32.5408 -32.5408  -8.3134  -8.3134  -7.6281  -7.6281  -7.2165  -7.2165
     2.5311   2.5311   4.0667   4.0667   4.3254   4.3254   5.5968   5.5968
     6.2543   6.2543   6.8885   6.8885   7.2628   7.2628   7.7040   7.7040
     8.2773   8.2773  10.7109  10.7109  11.2867  11.2867  12.3536  12.3536
    14.9082  14.9082  17.0264  17.0264

     occupation numbers 
     1.0000   1.0000   1.0000   1.0000   1.0000   1.0000   1.0000   1.0000
     1.0000   1.0000   1.0000   1.0000   1.0000   1.0000   1.0000   1.0000
     1.0000   1.0000   1.0000   1.0000   1.0000   1.0000   1.0000   1.0000
     1.0000   1.0000   1.0000   1.0000   1.0000   1.0000   1.0000   1.0000
     1.0000   1.0000   1.0000   1.0000   0.9934   0.9934   0.0000   0.0000
     0.0000   0.0000   0.0000   0.0000

          k = 0.6553 0.3784-0.1997 ( 10985 PWs)   bands (ev):

   -76.5362 -76.5360 -35.9465 -35.9424 -35.8845 -35.8748 -35.8573 -35.8559
   -32.5410 -32.5406  -8.4091  -8.2214  -7.7848  -7.3261  -7.3231  -7.2518
     2.5065   2.9277   3.1215   3.8295   4.9263   5.0330   5.4388   5.5365
     5.9880   6.1858   6.9665   6.9885   7.0822   7.1854   7.7324   7.7586
     8.1609   8.4561  10.2802  10.8932  11.2961  11.6976  12.2487  12.3278
    14.7928  15.1268  16.3647  17.5486

     occupation numbers 
     1.0000   1.0000   1.0000   1.0000   1.0000   1.0000   1.0000   1.0000
     1.0000   1.0000   1.0000   1.0000   1.0000   1.0000   1.0000   1.0000
     1.0000   1.0000   1.0000   1.0000   1.0000   1.0000   1.0000   1.0000
     1.0000   1.0000   1.0000   1.0000   1.0000   1.0000   1.0000   1.0000
     1.0000   1.0000   1.0000   1.0000   0.9888   0.0000   0.0000   0.0000
     0.0000   0.0000   0.0000   0.0000

          k = 0.0000 0.0000 0.4492 ( 10943 PWs)   bands (ev):

   -76.5364 -76.5358 -35.9478 -35.9324 -35.8769 -35.8769 -35.8633 -35.8633
   -32.5419 -32.5401  -8.5561  -7.7559  -7.7254  -7.7254  -7.3229  -7.3229
     3.3878   3.3878   4.1434   4.3939   4.3939   4.4315   4.5873   4.5873
     5.0067   5.9987   5.9987   6.2232   7.7291   8.0846   8.2404   8.2404
     8.5395   8.5395  10.8488  11.1881  11.1881  11.8108  12.0132  12.0132
    15.2503  15.2503  16.8403  16.8403

     occupation numbers 
     1.0000   1.0000   1.0000   1.0000   1.0000   1.0000   1.0000   1.0000
     1.0000   1.0000   1.0000   1.0000   1.0000   1.0000   1.0000   1.0000
     1.0000   1.0000   1.0000   1.0000   1.0000   1.0000   1.0000   1.0000
     1.0000   1.0000   1.0000   1.0000   1.0000   1.0000   1.0000   1.0000
     1.0000   1.0000   1.0000   1.0000   1.0000   0.0000   0.0000   0.0000
     0.0000   0.0000   0.0000   0.0000

          k = 0.0000 1.0594 0.0998 ( 10954 PWs)   bands (ev):

   -76.5363 -76.5359 -35.9457 -35.9361 -35.8784 -35.8708 -35.8694 -35.8603
   -32.5415 -32.5404  -8.4367  -7.9556  -7.6813  -7.5909  -7.4755  -7.2812
     3.0088   3.8697   3.9314   4.1952   4.4442   4.5785   4.6312   5.1618
     5.2246   5.3031   6.0324   6.4101   7.6745   7.8803   8.1142   8.3109
     8.4065   8.4459  10.9780  11.1980  11.5945  11.6018  11.7923  12.1276
    15.1165  15.9118  16.0381  16.8952

     occupation numbers 
     1.0000   1.0000   1.0000   1.0000   1.0000   1.0000   1.0000   1.0000
     1.0000   1.0000   1.0000   1.0000   1.0000   1.0000   1.0000   1.0000
     1.0000   1.0000   1.0000   1.0000   1.0000   1.0000   1.0000   1.0000
     1.0000   1.0000   1.0000   1.0000   1.0000   1.0000   1.0000   1.0000
     1.0000   1.0000   1.0000   1.0000   0.0000   0.0000   0.0000   0.0000
     0.0000   0.0000   0.0000   0.0000

          k = 0.0000 0.9080 0.1497 ( 10981 PWs)   bands (ev):

   -76.5361 -76.5361 -35.9441 -35.9413 -35.8783 -35.8774 -35.8620 -35.8580
   -32.5411 -32.5407  -8.3264  -8.1935  -7.6540  -7.5165  -7.4497  -7.2433
     2.6589   3.3444   3.6019   4.3673   4.5806   4.6804   4.9636   5.0275
     5.6970   6.0613   6.2631   6.7918   7.3238   7.4314   7.9306   8.1231
     8.2656   8.4103  10.8416  11.0374  11.5201  11.6075  11.9745  12.2523
    15.0318  15.3349  16.6801  16.7399

     occupation numbers 
     1.0000   1.0000   1.0000   1.0000   1.0000   1.0000   1.0000   1.0000
     1.0000   1.0000   1.0000   1.0000   1.0000   1.0000   1.0000   1.0000
     1.0000   1.0000   1.0000   1.0000   1.0000   1.0000   1.0000   1.0000
     1.0000   1.0000   1.0000   1.0000   1.0000   1.0000   1.0000   1.0000
     1.0000   1.0000   1.0000   1.0000   0.0088   0.0000   0.0000   0.0000
     0.0000   0.0000   0.0000   0.0000

          k = 0.9175 0.5297-0.2496 ( 10946 PWs)   bands (ev):

   -76.5362 -76.5360 -35.9436 -35.9386 -35.8777 -35.8722 -35.8663 -35.8625
   -32.5412 -32.5407  -8.3302  -8.0843  -7.6713  -7.4831  -7.4735  -7.3915
     3.3393   3.4539   3.6919   4.3878   4.4863   4.7889   4.8033   5.2724
     5.3818   5.3921   5.5421   6.1200   7.8020   7.8480   8.1878   8.2454
     8.3172   8.4391  10.9602  11.3106  11.6161  11.6676  11.8954  11.9883
    15.3117  15.7051  16.0729  16.7786

     occupation numbers 
     1.0000   1.0000   1.0000   1.0000   1.0000   1.0000   1.0000   1.0000
     1.0000   1.0000   1.0000   1.0000   1.0000   1.0000   1.0000   1.0000
     1.0000   1.0000   1.0000   1.0000   1.0000   1.0000   1.0000   1.0000
     1.0000   1.0000   1.0000   1.0000   1.0000   1.0000   1.0000   1.0000
     1.0000   1.0000   1.0000   0.9763   0.0000   0.0000   0.0000   0.0000
     0.0000   0.0000   0.0000   0.0000

          k = 0.9175 0.3784-0.1997 ( 10956 PWs)   bands (ev):

   -76.5361 -76.5361 -35.9424 -35.9424 -35.8775 -35.8775 -35.8606 -35.8606
   -32.5409 -32.5409  -8.2533  -8.2533  -7.6021  -7.6021  -7.3427  -7.3427
     2.9736   2.9736   4.0933   4.0933   4.5422   4.5422   5.1089   5.1089
     5.7824   5.7824   6.3200   6.3200   7.5380   7.5380   8.0344   8.0344
     8.3406   8.3406  10.9748  10.9748  11.5975  11.5975  12.1008  12.1008
    15.2136  15.2136  16.6696  16.6696

     occupation numbers 
     1.0000   1.0000   1.0000   1.0000   1.0000   1.0000   1.0000   1.0000
     1.0000   1.0000   1.0000   1.0000   1.0000   1.0000   1.0000   1.0000
     1.0000   1.0000   1.0000   1.0000   1.0000   1.0000   1.0000   1.0000
     1.0000   1.0000   1.0000   1.0000   1.0000   1.0000   1.0000   1.0000
     1.0000   1.0000   1.0000   1.0000   0.0000   0.0000   0.0000   0.0000
     0.0000   0.0000   0.0000   0.0000

          k = 0.0000 0.0000-0.5990 ( 10952 PWs)   bands (ev):

   -76.5361 -76.5361 -35.9402 -35.9402 -35.8701 -35.8701 -35.8701 -35.8701
   -32.5410 -32.5410  -8.1736  -8.1736  -7.5303  -7.5303  -7.5303  -7.5303
     3.9076   3.9076   3.9076   3.9076   4.5546   4.5546   5.1870   5.1870
     5.1870   5.1870   5.2734   5.2734   7.9503   7.9503   8.3873   8.3873
     8.3873   8.3873  11.3313  11.3313  11.7137  11.7137  11.7137  11.7137
    15.9820  15.9820  15.9820  15.9820

     occupation numbers 
     1.0000   1.0000   1.0000   1.0000   1.0000   1.0000   1.0000   1.0000
     1.0000   1.0000   1.0000   1.0000   1.0000   1.0000   1.0000   1.0000
     1.0000   1.0000   1.0000   1.0000   1.0000   1.0000   1.0000   1.0000
     1.0000   1.0000   1.0000   1.0000   1.0000   1.0000   1.0000   1.0000
     1.0000   1.0000   0.9395   0.9395   0.0000   0.0000   0.0000   0.0000
     0.0000   0.0000   0.0000   0.0000

     the Fermi energy is    11.4059 ev

!    total energy              =    -631.16238158 Ry
     Harris-Foulkes estimate   =    -631.16238158 Ry
     estimated scf accuracy    <          8.4E-13 Ry

     The total energy is the sum of the following terms:

     one-electron contribution =    -205.52921349 Ry
     hartree contribution      =     138.08434866 Ry
     xc contribution           =    -137.94880810 Ry
     ewald contribution        =    -425.76780308 Ry
     smearing contrib. (-TS)   =      -0.00090557 Ry

     convergence has been achieved in  14 iterations

     Writing output data file ./tmp/LiOsO3.save/
 
     init_run     :      2.63s CPU      2.74s WALL (       1 calls)
     electrons    :     55.17s CPU     58.19s WALL (       1 calls)

     Called by init_run:
     wfcinit      :      1.24s CPU      1.33s WALL (       1 calls)
     wfcinit:atom :      0.02s CPU      0.02s WALL (      17 calls)
     wfcinit:wfcr :      1.11s CPU      1.20s WALL (      17 calls)
     potinit      :      0.38s CPU      0.39s WALL (       1 calls)
     hinit0       :      0.65s CPU      0.66s WALL (       1 calls)

     Called by electrons:
     c_bands      :     47.02s CPU     49.58s WALL (      14 calls)
     sum_band     :      7.57s CPU      7.96s WALL (      14 calls)
     v_of_rho     :      0.44s CPU      0.48s WALL (      15 calls)
     v_h          :      0.02s CPU      0.03s WALL (      15 calls)
     v_xc         :      0.42s CPU      0.46s WALL (      15 calls)
     mix_rho      :      0.10s CPU      0.10s WALL (      14 calls)

     Called by c_bands:
     init_us_2    :      1.18s CPU      1.20s WALL (     493 calls)
     cegterg      :     38.45s CPU     40.93s WALL (     238 calls)

     Called by sum_band:

     Called by *egterg:
     h_psi        :     31.20s CPU     33.25s WALL (     773 calls)
     g_psi        :      0.18s CPU      0.18s WALL (     518 calls)
     cdiaghg      :      2.71s CPU      2.80s WALL (     756 calls)
     cegterg:over :      2.00s CPU      2.01s WALL (     518 calls)
     cegterg:upda :      1.73s CPU      1.93s WALL (     518 calls)
     cegterg:last :      0.75s CPU      0.75s WALL (     238 calls)
     cdiaghg:chol :      0.18s CPU      0.18s WALL (     756 calls)
     cdiaghg:inve :      0.03s CPU      0.03s WALL (     756 calls)
     cdiaghg:para :      0.34s CPU      0.37s WALL (    1512 calls)

     Called by h_psi:
     h_psi:calbec :      2.73s CPU      2.77s WALL (     773 calls)
     vloc_psi     :     25.70s CPU     27.28s WALL (     773 calls)
     add_vuspsi   :      2.61s CPU      2.75s WALL (     773 calls)

     General routines
     calbec       :      2.73s CPU      2.77s WALL (     773 calls)
     fft          :      0.41s CPU      0.43s WALL (     150 calls)
     ffts         :      0.01s CPU      0.01s WALL (      14 calls)
     fftw         :     27.92s CPU     29.84s WALL (   60152 calls)
 
     Parallel routines
     fft_scatt_xy :      6.69s CPU      7.08s WALL (   60316 calls)
     fft_scatt_yz :     10.35s CPU     10.75s WALL (   60316 calls)
 
     PWSCF        :     58.52s CPU   1m 2.15s WALL

 
   This run was terminated on:  13:37:41  23Jun2020            

=------------------------------------------------------------------------------=
   JOB DONE.
=------------------------------------------------------------------------------=
