
     Program PWSCF v.5.3.0 (svn rev. 11974) starts on 12Sep2018 at 17:55:56 

     This program is part of the open-source Quantum ESPRESSO suite
     for quantum simulation of materials; please cite
         "P. Giannozzi et al., J. Phys.:Condens. Matter 21 395502 (2009);
          URL http://www.quantum-espresso.org", 
     in publications or presentations arising from this work. More details at
     http://www.quantum-espresso.org/quote

     Parallel version (MPI), running on    20 processors
     R & G space division:  proc/nbgrp/npool/nimage =      20
     Waiting for input...
     Reading input from standard input
Warning: card &CELL ignored
Warning: card   PRESS = 0 ignored
Warning: card / ignored

     Current dimensions of program PWSCF are:
     Max number of different atomic species (ntypx) = 10
     Max number of k-points (npk) =  40000
     Max angular momentum in pseudopotentials (lmaxx) =  3
               file Bi.pbesol-dn-rrkjus_psl.1.0.0.UPF: wavefunction(s)  5D renormalized
               file Ba.pbesol-spn-rrkjus_psl.1.0.0.UPF: wavefunction(s)  5S 6S renormalized
               file Ti.pbesol-spn-kjpaw_psl.1.0.0.UPF: wavefunction(s)  3S 3P 3D renormalized

     Subspace diagonalization in iterative solution of the eigenvalue problem:
     one sub-group per k-point group (pool) will be used
     scalapack distributed-memory algorithm (size of sub-group:  3*  3 procs)

 
     Parallelization info
     --------------------
     sticks:   dense  smooth     PW     G-vecs:    dense   smooth      PW
     Min         225      89     26                 8061     2025     316
     Max         227      90     28                 8063     2046     317
     Sum        4503    1789    527               161223    40717    6325
 


     bravais-lattice index     =            8
     lattice parameter (alat)  =       7.5547  a.u.
     unit-cell volume          =     854.1568 (a.u.)^3
     number of atoms/cell      =           10
     number of atomic types    =            4
     number of electrons       =        85.00
     number of Kohn-Sham states=           52
     kinetic-energy cutoff     =      50.0000  Ry
     charge density cutoff     =     500.0000  Ry
     convergence threshold     =      1.0E-08
     mixing beta               =       0.7000
     number of iterations used =            8  plain     mixing
     Exchange-correlation      = PBESOL ( 1  4 10  8 0 0)

     celldm(1)=   7.554673  celldm(2)=   1.988363  celldm(3)=   0.996311
     celldm(4)=   0.000000  celldm(5)=   0.000000  celldm(6)=   0.000000

     crystal axes: (cart. coord. in units of alat)
               a(1) = (   1.000000   0.000000   0.000000 )  
               a(2) = (   0.000000   1.988363   0.000000 )  
               a(3) = (   0.000000   0.000000   0.996311 )  

     reciprocal axes: (cart. coord. in units 2 pi/alat)
               b(1) = (  1.000000  0.000000  0.000000 )  
               b(2) = (  0.000000  0.502926  0.000000 )  
               b(3) = (  0.000000  0.000000  1.003703 )  


     PseudoPot. # 1 for Bi read from file:
     /home/ywfang/pwwork/BiBaTi2O6/pot/pbesol/Bi.pbesol-dn-rrkjus_psl.1.0.0.UPF
     MD5 check sum: cb3ff4dbc9409513791893b8fa9b4229
     Pseudo is Ultrasoft + core correction, Zval = 15.0
     Generated using "atomic" code by A. Dal Corso  v.5.4.0
     Using radial grid of 1283 points,  6 beta functions with: 
                l(1) =   0
                l(2) =   0
                l(3) =   1
                l(4) =   1
                l(5) =   2
                l(6) =   2
     Q(r) pseudized with 0 coefficients 


     PseudoPot. # 2 for Ba read from file:
     /home/ywfang/pwwork/BiBaTi2O6/pot/pbesol/Ba.pbesol-spn-rrkjus_psl.1.0.0.UPF
     MD5 check sum: feb3752cb3a0ac98d76240b2e190bedc
     Pseudo is Ultrasoft + core correction, Zval = 10.0
     Generated using "atomic" code by A. Dal Corso  v.5.4.0
     Using radial grid of 1251 points,  7 beta functions with: 
                l(1) =   0
                l(2) =   0
                l(3) =   0
                l(4) =   1
                l(5) =   1
                l(6) =   2
                l(7) =   2
     Q(r) pseudized with 0 coefficients 


     PseudoPot. # 3 for Ti read from file:
     /home/ywfang/pwwork/BiBaTi2O6/pot/pbesol/Ti.pbesol-spn-kjpaw_psl.1.0.0.UPF
     MD5 check sum: f01b28cfbdfc43f3e8444aa53e0c63d2
     Pseudo is Projector augmented-wave + core cor, Zval = 12.0
     Generated using "atomic" code by A. Dal Corso  v.5.4.0
     Shape of augmentation charge: PSQ
     Using radial grid of 1177 points,  6 beta functions with: 
                l(1) =   0
                l(2) =   0
                l(3) =   1
                l(4) =   1
                l(5) =   2
                l(6) =   2
     Q(r) pseudized with 0 coefficients 


     PseudoPot. # 4 for  O read from file:
     /home/ywfang/pwwork/BiBaTi2O6/pot/pbesol/O.pbesol-n-rrkjus_psl.1.0.0.UPF
     MD5 check sum: aac752dc4a01736169d21f3032064138
     Pseudo is Ultrasoft + core correction, Zval =  6.0
     Generated using "atomic" code by A. Dal Corso  v.5.4.0
     Using radial grid of 1095 points,  4 beta functions with: 
                l(1) =   0
                l(2) =   0
                l(3) =   1
                l(4) =   1
     Q(r) pseudized with 0 coefficients 


     atomic species   valence    mass     pseudopotential
        Bi            15.00   208.98000     Bi( 1.00)
        Ba            10.00   137.32700     Ba( 1.00)
        Ti            12.00    47.86700     Ti( 1.00)
        O              6.00    15.99940      O( 1.00)

      4 Sym. Ops. (no inversion) found


                                    s                        frac. trans.

      isym =  1     identity                                     

 cryst.   s( 1) = (     1          0          0      )
                  (     0          1          0      )
                  (     0          0          1      )

 cart.    s( 1) = (  1.0000000  0.0000000  0.0000000 )
                  (  0.0000000  1.0000000  0.0000000 )
                  (  0.0000000  0.0000000  1.0000000 )


      isym =  2     180 deg rotation - cart. axis [0,0,1]        

 cryst.   s( 2) = (    -1          0          0      )
                  (     0         -1          0      )
                  (     0          0          1      )

 cart.    s( 2) = ( -1.0000000  0.0000000  0.0000000 )
                  (  0.0000000 -1.0000000  0.0000000 )
                  (  0.0000000  0.0000000  1.0000000 )


      isym =  3     inv. 180 deg rotation - cart. axis [0,1,0]   

 cryst.   s( 3) = (     1          0          0      )
                  (     0         -1          0      )
                  (     0          0          1      )

 cart.    s( 3) = (  1.0000000  0.0000000  0.0000000 )
                  (  0.0000000 -1.0000000  0.0000000 )
                  (  0.0000000  0.0000000  1.0000000 )


      isym =  4     inv. 180 deg rotation - cart. axis [1,0,0]   

 cryst.   s( 4) = (    -1          0          0      )
                  (     0          1          0      )
                  (     0          0          1      )

 cart.    s( 4) = ( -1.0000000  0.0000000  0.0000000 )
                  (  0.0000000  1.0000000  0.0000000 )
                  (  0.0000000  0.0000000  1.0000000 )


     point group C_2v (mm2) 
     there are  4 classes
     the character table:

       E     C2    s_v   s_v' 
A_1    1.00  1.00  1.00  1.00
A_2    1.00  1.00 -1.00 -1.00
B_1    1.00 -1.00  1.00 -1.00
B_2    1.00 -1.00 -1.00  1.00

     the symmetry operations in each class and the name of the first element:

     E        1
          identity                                               
     C2       2
          180 deg rotation - cart. axis [0,0,1]                  
     s_v      3
          inv. 180 deg rotation - cart. axis [0,1,0]             
     s_v'     4
          inv. 180 deg rotation - cart. axis [1,0,0]             

   Cartesian axes

     site n.     atom                  positions (alat units)
         1           Bi  tau(   1) = (   0.0000000   0.9941815   0.3926274  )
         2           Ba  tau(   2) = (   0.0000000   0.0000000   0.2660693  )
         3           Ti  tau(   3) = (   0.5000000   0.4908217   0.7731781  )
         4           Ti  tau(   4) = (   0.5000000   1.4975413   0.7731781  )
         5           O   tau(   5) = (   0.0000000   0.5238691   0.7409216  )
         6           O   tau(   6) = (   0.0000000   1.4644939   0.7409216  )
         7           O   tau(   7) = (   0.5000000   0.5054399   0.2541092  )
         8           O   tau(   8) = (   0.5000000   1.4829231   0.2541092  )
         9           O   tau(   9) = (   0.5000000   0.0000000   0.7613035  )
        10           O   tau(  10) = (   0.5000000   0.9941815   0.7127711  )

   Crystallographic axes

     site n.     atom                  positions (cryst. coord.)
         1           Bi  tau(   1) = (  0.0000000  0.5000000  0.3940812  )
         2           Ba  tau(   2) = (  0.0000000  0.0000000  0.2670544  )
         3           Ti  tau(   3) = (  0.5000000  0.2468471  0.7760409  )
         4           Ti  tau(   4) = (  0.5000000  0.7531529  0.7760409  )
         5           O   tau(   5) = (  0.0000000  0.2634675  0.7436649  )
         6           O   tau(   6) = (  0.0000000  0.7365325  0.7436649  )
         7           O   tau(   7) = (  0.5000000  0.2541990  0.2550500  )
         8           O   tau(   8) = (  0.5000000  0.7458010  0.2550500  )
         9           O   tau(   9) = (  0.5000000  0.0000000  0.7641224  )
        10           O   tau(  10) = (  0.5000000  0.5000000  0.7154102  )

     number of k points=    32  Methfessel-Paxton smearing, width (Ry)=  0.0200
                       cart. coord. in units 2pi/alat
        k(    1) = (   0.0000000   0.0000000   0.0000000), wk =   0.0136054
        k(    2) = (   0.0000000   0.0000000   0.1433861), wk =   0.0272109
        k(    3) = (   0.0000000   0.0000000   0.2867722), wk =   0.0272109
        k(    4) = (   0.0000000   0.0000000   0.4301583), wk =   0.0272109
        k(    5) = (   0.0000000   0.1676421   0.0000000), wk =   0.0272109
        k(    6) = (   0.0000000   0.1676421   0.1433861), wk =   0.0544218
        k(    7) = (   0.0000000   0.1676421   0.2867722), wk =   0.0544218
        k(    8) = (   0.0000000   0.1676421   0.4301583), wk =   0.0544218
        k(    9) = (   0.1428571   0.0000000   0.0000000), wk =   0.0272109
        k(   10) = (   0.1428571   0.0000000   0.1433861), wk =   0.0544218
        k(   11) = (   0.1428571   0.0000000   0.2867722), wk =   0.0544218
        k(   12) = (   0.1428571   0.0000000   0.4301583), wk =   0.0544218
        k(   13) = (   0.1428571   0.1676421   0.0000000), wk =   0.0544218
        k(   14) = (   0.1428571   0.1676421   0.1433861), wk =   0.1088435
        k(   15) = (   0.1428571   0.1676421   0.2867722), wk =   0.1088435
        k(   16) = (   0.1428571   0.1676421   0.4301583), wk =   0.1088435
        k(   17) = (   0.2857143   0.0000000   0.0000000), wk =   0.0272109
        k(   18) = (   0.2857143   0.0000000   0.1433861), wk =   0.0544218
        k(   19) = (   0.2857143   0.0000000   0.2867722), wk =   0.0544218
        k(   20) = (   0.2857143   0.0000000   0.4301583), wk =   0.0544218
        k(   21) = (   0.2857143   0.1676421   0.0000000), wk =   0.0544218
        k(   22) = (   0.2857143   0.1676421   0.1433861), wk =   0.1088435
        k(   23) = (   0.2857143   0.1676421   0.2867722), wk =   0.1088435
        k(   24) = (   0.2857143   0.1676421   0.4301583), wk =   0.1088435
        k(   25) = (   0.4285714   0.0000000   0.0000000), wk =   0.0272109
        k(   26) = (   0.4285714   0.0000000   0.1433861), wk =   0.0544218
        k(   27) = (   0.4285714   0.0000000   0.2867722), wk =   0.0544218
        k(   28) = (   0.4285714   0.0000000   0.4301583), wk =   0.0544218
        k(   29) = (   0.4285714   0.1676421   0.0000000), wk =   0.0544218
        k(   30) = (   0.4285714   0.1676421   0.1433861), wk =   0.1088435
        k(   31) = (   0.4285714   0.1676421   0.2867722), wk =   0.1088435
        k(   32) = (   0.4285714   0.1676421   0.4301583), wk =   0.1088435

                       cryst. coord.
        k(    1) = (   0.0000000   0.0000000   0.0000000), wk =   0.0136054
        k(    2) = (   0.0000000   0.0000000   0.1428571), wk =   0.0272109
        k(    3) = (   0.0000000   0.0000000   0.2857143), wk =   0.0272109
        k(    4) = (   0.0000000   0.0000000   0.4285714), wk =   0.0272109
        k(    5) = (   0.0000000   0.3333333   0.0000000), wk =   0.0272109
        k(    6) = (   0.0000000   0.3333333   0.1428571), wk =   0.0544218
        k(    7) = (   0.0000000   0.3333333   0.2857143), wk =   0.0544218
        k(    8) = (   0.0000000   0.3333333   0.4285714), wk =   0.0544218
        k(    9) = (   0.1428571   0.0000000   0.0000000), wk =   0.0272109
        k(   10) = (   0.1428571   0.0000000   0.1428571), wk =   0.0544218
        k(   11) = (   0.1428571   0.0000000   0.2857143), wk =   0.0544218
        k(   12) = (   0.1428571   0.0000000   0.4285714), wk =   0.0544218
        k(   13) = (   0.1428571   0.3333333   0.0000000), wk =   0.0544218
        k(   14) = (   0.1428571   0.3333333   0.1428571), wk =   0.1088435
        k(   15) = (   0.1428571   0.3333333   0.2857143), wk =   0.1088435
        k(   16) = (   0.1428571   0.3333333   0.4285714), wk =   0.1088435
        k(   17) = (   0.2857143   0.0000000   0.0000000), wk =   0.0272109
        k(   18) = (   0.2857143   0.0000000   0.1428571), wk =   0.0544218
        k(   19) = (   0.2857143   0.0000000   0.2857143), wk =   0.0544218
        k(   20) = (   0.2857143   0.0000000   0.4285714), wk =   0.0544218
        k(   21) = (   0.2857143   0.3333333   0.0000000), wk =   0.0544218
        k(   22) = (   0.2857143   0.3333333   0.1428571), wk =   0.1088435
        k(   23) = (   0.2857143   0.3333333   0.2857143), wk =   0.1088435
        k(   24) = (   0.2857143   0.3333333   0.4285714), wk =   0.1088435
        k(   25) = (   0.4285714   0.0000000   0.0000000), wk =   0.0272109
        k(   26) = (   0.4285714   0.0000000   0.1428571), wk =   0.0544218
        k(   27) = (   0.4285714   0.0000000   0.2857143), wk =   0.0544218
        k(   28) = (   0.4285714   0.0000000   0.4285714), wk =   0.0544218
        k(   29) = (   0.4285714   0.3333333   0.0000000), wk =   0.0544218
        k(   30) = (   0.4285714   0.3333333   0.1428571), wk =   0.1088435
        k(   31) = (   0.4285714   0.3333333   0.2857143), wk =   0.1088435
        k(   32) = (   0.4285714   0.3333333   0.4285714), wk =   0.1088435

     Dense  grid:   161223 G-vectors     FFT dimensions: (  54, 108,  54)

     Smooth grid:    40717 G-vectors     FFT dimensions: (  36,  72,  36)

     Largest allocated arrays     est. size (Mb)     dimensions
        Kohn-Sham Wavefunctions         0.21 Mb     (     261,   52)
        NL pseudopotentials             0.48 Mb     (     261,  121)
        Each V/rho on FFT grid          0.27 Mb     (   17496)
        Each G-vector array             0.06 Mb     (    8063)
        G-vector shells                 0.03 Mb     (    3889)
     Largest temporary arrays     est. size (Mb)     dimensions
        Auxiliary wavefunctions         0.83 Mb     (     261,  208)
        Each subspace H/S matrix        0.07 Mb     (      69,   69)
        Each <psi_i|beta_j> matrix      0.10 Mb     (     121,   52)
        Arrays for rho mixing           2.14 Mb     (   17496,    8)

     Check: negative/imaginary core charge=   -0.000001    0.000000

     Initial potential from superposition of free atoms

     starting charge   84.98081, renormalised to   85.00000
     Starting wfc are   58 randomized atomic wfcs
     Checking if some PAW data can be deallocated... 
       node    0, deallocated PAW data for type:  3
       node    1, deallocated PAW data for type:  3
       node    2, deallocated PAW data for type:  3
       node    3, deallocated PAW data for type:  3
       node    8, deallocated PAW data for type:  3
       node    9, deallocated PAW data for type:  3
       node   10, deallocated PAW data for type:  3
       node   11, deallocated PAW data for type:  3
       node   12, deallocated PAW data for type:  3
       node   13, deallocated PAW data for type:  3
       node   14, deallocated PAW data for type:  3
       node   15, deallocated PAW data for type:  3
       node   16, deallocated PAW data for type:  3
       node   17, deallocated PAW data for type:  3
       node   18, deallocated PAW data for type:  3
       node   19, deallocated PAW data for type:  3

     total cpu time spent up to now is        2.7 secs

     per-process dynamical memory:    52.1 Mb

     Self-consistent Calculation

     iteration #  1     ecut=    50.00 Ry     beta=0.70
     Davidson diagonalization with overlap
     ethr =  1.00E-02,  avg # of iterations =  2.1

     total cpu time spent up to now is        4.5 secs

     total energy              =    -774.00680296 Ry
     Harris-Foulkes estimate   =    -777.11960868 Ry
     estimated scf accuracy    <       3.91794989 Ry

     iteration #  2     ecut=    50.00 Ry     beta=0.70
     Davidson diagonalization with overlap
     ethr =  4.61E-03,  avg # of iterations =  4.2

     total cpu time spent up to now is        7.9 secs

     total energy              =    -769.26083521 Ry
     Harris-Foulkes estimate   =    -780.51097367 Ry
     estimated scf accuracy    <      43.65234058 Ry

     iteration #  3     ecut=    50.00 Ry     beta=0.70
     Davidson diagonalization with overlap
     ethr =  4.61E-03,  avg # of iterations =  4.6

     total cpu time spent up to now is       11.5 secs

     total energy              =    -776.28210340 Ry
     Harris-Foulkes estimate   =    -777.12163276 Ry
     estimated scf accuracy    <       2.64541491 Ry

     iteration #  4     ecut=    50.00 Ry     beta=0.70
     Davidson diagonalization with overlap
     ethr =  3.11E-03,  avg # of iterations =  2.9

     total cpu time spent up to now is       13.5 secs

     total energy              =    -776.38716608 Ry
     Harris-Foulkes estimate   =    -776.47192388 Ry
     estimated scf accuracy    <       0.77243535 Ry

     iteration #  5     ecut=    50.00 Ry     beta=0.70
     Davidson diagonalization with overlap
     ethr =  9.09E-04,  avg # of iterations =  4.4

     total cpu time spent up to now is       15.9 secs

     total energy              =    -776.42870648 Ry
     Harris-Foulkes estimate   =    -776.45675862 Ry
     estimated scf accuracy    <       0.78446011 Ry

     iteration #  6     ecut=    50.00 Ry     beta=0.70
     Davidson diagonalization with overlap
     ethr =  9.09E-04,  avg # of iterations =  2.9

     total cpu time spent up to now is       17.9 secs

     total energy              =    -776.40671873 Ry
     Harris-Foulkes estimate   =    -776.44764490 Ry
     estimated scf accuracy    <       0.36518858 Ry

     iteration #  7     ecut=    50.00 Ry     beta=0.70
     Davidson diagonalization with overlap
     ethr =  4.30E-04,  avg # of iterations =  3.9

     total cpu time spent up to now is       20.1 secs

     total energy              =    -776.35336878 Ry
     Harris-Foulkes estimate   =    -776.41814255 Ry
     estimated scf accuracy    <       0.22416236 Ry

     iteration #  8     ecut=    50.00 Ry     beta=0.70
     Davidson diagonalization with overlap
     ethr =  2.64E-04,  avg # of iterations =  6.0

     total cpu time spent up to now is       23.0 secs

     total energy              =    -776.38280707 Ry
     Harris-Foulkes estimate   =    -776.38764249 Ry
     estimated scf accuracy    <       0.03174655 Ry

     iteration #  9     ecut=    50.00 Ry     beta=0.70
     Davidson diagonalization with overlap
     ethr =  3.73E-05,  avg # of iterations =  6.2

     total cpu time spent up to now is       26.3 secs

     total energy              =    -776.38623009 Ry
     Harris-Foulkes estimate   =    -776.38729852 Ry
     estimated scf accuracy    <       0.01987809 Ry

     iteration # 10     ecut=    50.00 Ry     beta=0.70
     Davidson diagonalization with overlap
     ethr =  2.34E-05,  avg # of iterations =  3.0

     total cpu time spent up to now is       28.3 secs

     total energy              =    -776.38641528 Ry
     Harris-Foulkes estimate   =    -776.38686288 Ry
     estimated scf accuracy    <       0.00087706 Ry

     iteration # 11     ecut=    50.00 Ry     beta=0.70
     Davidson diagonalization with overlap
     ethr =  1.03E-06,  avg # of iterations =  4.5

     total cpu time spent up to now is       31.8 secs

     total energy              =    -776.38694936 Ry
     Harris-Foulkes estimate   =    -776.38705213 Ry
     estimated scf accuracy    <       0.00051717 Ry

     iteration # 12     ecut=    50.00 Ry     beta=0.70
     Davidson diagonalization with overlap
     ethr =  6.08E-07,  avg # of iterations =  2.0

     total cpu time spent up to now is       33.6 secs

     total energy              =    -776.38696069 Ry
     Harris-Foulkes estimate   =    -776.38698141 Ry
     estimated scf accuracy    <       0.00020018 Ry

     iteration # 13     ecut=    50.00 Ry     beta=0.70
     Davidson diagonalization with overlap
     ethr =  2.36E-07,  avg # of iterations =  3.5

     total cpu time spent up to now is       35.8 secs

     total energy              =    -776.38697433 Ry
     Harris-Foulkes estimate   =    -776.38697707 Ry
     estimated scf accuracy    <       0.00001272 Ry

     iteration # 14     ecut=    50.00 Ry     beta=0.70
     Davidson diagonalization with overlap
     ethr =  1.50E-08,  avg # of iterations =  4.0

     total cpu time spent up to now is       38.7 secs

     total energy              =    -776.38697999 Ry
     Harris-Foulkes estimate   =    -776.38698245 Ry
     estimated scf accuracy    <       0.00002070 Ry

     iteration # 15     ecut=    50.00 Ry     beta=0.70
     Davidson diagonalization with overlap
     ethr =  1.50E-08,  avg # of iterations =  2.3

     total cpu time spent up to now is       40.6 secs

     total energy              =    -776.38697990 Ry
     Harris-Foulkes estimate   =    -776.38698071 Ry
     estimated scf accuracy    <       0.00000430 Ry

     iteration # 16     ecut=    50.00 Ry     beta=0.70
     Davidson diagonalization with overlap
     ethr =  5.06E-09,  avg # of iterations =  2.9

     total cpu time spent up to now is       42.8 secs

     total energy              =    -776.38698021 Ry
     Harris-Foulkes estimate   =    -776.38698042 Ry
     estimated scf accuracy    <       0.00000102 Ry

     iteration # 17     ecut=    50.00 Ry     beta=0.70
     Davidson diagonalization with overlap
     ethr =  1.20E-09,  avg # of iterations =  3.9

     total cpu time spent up to now is       45.1 secs

     total energy              =    -776.38698030 Ry
     Harris-Foulkes estimate   =    -776.38698036 Ry
     estimated scf accuracy    <       0.00000016 Ry

     iteration # 18     ecut=    50.00 Ry     beta=0.70
     Davidson diagonalization with overlap
     ethr =  1.85E-10,  avg # of iterations =  4.1

     total cpu time spent up to now is       47.7 secs

     total energy              =    -776.38698034 Ry
     Harris-Foulkes estimate   =    -776.38698036 Ry
     estimated scf accuracy    <       0.00000006 Ry

     iteration # 19     ecut=    50.00 Ry     beta=0.70
     Davidson diagonalization with overlap
     ethr =  6.56E-11,  avg # of iterations =  2.6

     total cpu time spent up to now is       49.7 secs

     End of self-consistent calculation

          k = 0.0000 0.0000 0.0000 (  5089 PWs)   bands (ev):

   -44.8429 -44.8416 -21.3181 -21.2916 -21.2628 -21.2239 -21.2214 -21.2172
   -14.3602 -11.5688 -11.5312 -11.5043 -11.4841 -11.4749  -7.2576  -6.5870
    -5.8258  -5.6059  -5.5693  -5.5194   0.4996   0.5222   0.6023   1.6925
     6.1824   6.2287   7.2040   7.4261   7.8112   8.0249   8.2077   8.5526
     8.5908   9.0682   9.1695   9.2438   9.3631   9.6246   9.6850   9.8296
    10.0138  10.0562  13.0189  13.0921  13.1260  13.2865  14.5560  14.6645
    14.7599  14.8914  15.3906  15.4134

     occupation numbers 
     1.0000   1.0000   1.0000   1.0000   1.0000   1.0000   1.0000   1.0000
     1.0000   1.0000   1.0000   1.0000   1.0000   1.0000   1.0000   1.0000
     1.0000   1.0000   1.0000   1.0000   1.0000   1.0000   1.0000   1.0000
     1.0000   1.0000   1.0000   1.0000   1.0000   1.0000   1.0000   1.0000
     1.0000   1.0000   1.0000   1.0000   1.0000   1.0000   1.0000   1.0000
     1.0000   1.0000   1.0273   1.0354   1.0333   0.8831  -0.0000  -0.0000
    -0.0000  -0.0000  -0.0000  -0.0000

          k = 0.0000 0.0000 0.1434 (  5091 PWs)   bands (ev):

   -44.8427 -44.8414 -21.3232 -21.3019 -21.2691 -21.2234 -21.2210 -21.2182
   -14.3416 -11.5671 -11.5366 -11.4976 -11.4865 -11.4748  -7.2165  -6.5126
    -5.8251  -5.6198  -5.5221  -5.4905   0.4872   0.5576   0.5886   1.6356
     6.1708   6.2962   7.0631   7.1858   7.8264   7.9959   8.0344   8.4259
     8.5263   8.9443   9.0437   9.1354   9.3250   9.3828   9.4218   9.6778
     9.8639  10.0147  13.0396  13.4495  13.4705  13.6051  14.5098  14.6574
    14.7986  14.8359  15.4116  15.7737

     occupation numbers 
     1.0000   1.0000   1.0000   1.0000   1.0000   1.0000   1.0000   1.0000
     1.0000   1.0000   1.0000   1.0000   1.0000   1.0000   1.0000   1.0000
     1.0000   1.0000   1.0000   1.0000   1.0000   1.0000   1.0000   1.0000
     1.0000   1.0000   1.0000   1.0000   1.0000   1.0000   1.0000   1.0000
     1.0000   1.0000   1.0000   1.0000   1.0000   1.0000   1.0000   1.0000
     1.0000   1.0000   1.0306   0.4371   0.3731   0.0602  -0.0000  -0.0000
    -0.0000  -0.0000  -0.0000  -0.0000

          k = 0.0000 0.0000 0.2868 (  5103 PWs)   bands (ev):

   -44.8422 -44.8409 -21.3398 -21.3262 -21.2778 -21.2224 -21.2201 -21.2192
   -14.2992 -11.5634 -11.5486 -11.4919 -11.4822 -11.4745  -7.1313  -6.3484
    -5.8280  -5.7118  -5.4046  -5.3444   0.4752   0.5565   0.6401   1.4914
     6.1245   6.4636   6.8888   6.9296   7.4016   7.5637   7.8704   8.0923
     8.0961   8.6046   8.7781   8.8211   8.8656   9.0313   9.4768   9.6383
     9.7641  10.1952  13.0942  14.1088  14.1647  14.1860  14.2570  14.6328
    14.9060  15.0981  15.4168  15.8862

     occupation numbers 
     1.0000   1.0000   1.0000   1.0000   1.0000   1.0000   1.0000   1.0000
     1.0000   1.0000   1.0000   1.0000   1.0000   1.0000   1.0000   1.0000
     1.0000   1.0000   1.0000   1.0000   1.0000   1.0000   1.0000   1.0000
     1.0000   1.0000   1.0000   1.0000   1.0000   1.0000   1.0000   1.0000
     1.0000   1.0000   1.0000   1.0000   1.0000   1.0000   1.0000   1.0000
     1.0000   1.0000   1.0355  -0.0012  -0.0004  -0.0003  -0.0001  -0.0000
    -0.0000  -0.0000  -0.0000  -0.0000

          k = 0.0000 0.0000 0.4302 (  5097 PWs)   bands (ev):

   -44.8418 -44.8405 -21.3567 -21.3460 -21.2808 -21.2217 -21.2196 -21.2192
   -14.2647 -11.5604 -11.5582 -11.4961 -11.4744 -11.4697  -7.0721  -6.2213
    -5.8467  -5.7663  -5.2962  -5.2113   0.4811   0.5301   0.7093   1.3643
     6.0449   6.6213   6.6969   6.8604   6.9587   7.0499   7.7823   7.8132
     7.9237   8.2178   8.5417   8.6560   8.7479   8.8462   9.4064   9.6992
     9.7080  10.3782  13.1403  13.7820  14.5576  14.7347  14.7385  14.7523
    15.1520  15.4168  15.4358  15.5991

     occupation numbers 
     1.0000   1.0000   1.0000   1.0000   1.0000   1.0000   1.0000   1.0000
     1.0000   1.0000   1.0000   1.0000   1.0000   1.0000   1.0000   1.0000
     1.0000   1.0000   1.0000   1.0000   1.0000   1.0000   1.0000   1.0000
     1.0000   1.0000   1.0000   1.0000   1.0000   1.0000   1.0000   1.0000
     1.0000   1.0000   1.0000   1.0000   1.0000   1.0000   1.0000   1.0000
     1.0000   1.0000   1.0304  -0.0347  -0.0000  -0.0000  -0.0000  -0.0000
    -0.0000  -0.0000  -0.0000  -0.0000

          k = 0.0000 0.1676 0.0000 (  5086 PWs)   bands (ev):

   -44.8426 -44.8419 -21.3082 -21.2953 -21.2556 -21.2309 -21.2232 -21.2219
   -14.3597 -11.5693 -11.5310 -11.5047 -11.4840 -11.4750  -7.2887  -6.4865
    -5.8414  -5.6520  -5.5948  -5.5062   0.4991   0.5161   0.5227   1.7868
     6.1997   6.2773   7.2978   7.4274   7.9730   8.0948   8.3668   8.5553
     8.6278   8.7568   8.9248   9.0304   9.1848   9.6656   9.8102   9.8286
     9.9019  10.1231  13.1294  13.2127  13.4096  13.4355  14.1603  14.3354
    14.3962  15.1971  15.4101  15.4569

     occupation numbers 
     1.0000   1.0000   1.0000   1.0000   1.0000   1.0000   1.0000   1.0000
     1.0000   1.0000   1.0000   1.0000   1.0000   1.0000   1.0000   1.0000
     1.0000   1.0000   1.0000   1.0000   1.0000   1.0000   1.0000   1.0000
     1.0000   1.0000   1.0000   1.0000   1.0000   1.0000   1.0000   1.0000
     1.0000   1.0000   1.0000   1.0000   1.0000   1.0000   1.0000   1.0000
     1.0000   1.0000   1.0327   0.9889   0.5607   0.4804  -0.0005  -0.0000
    -0.0000  -0.0000  -0.0000  -0.0000

          k = 0.0000 0.1676 0.1434 (  5111 PWs)   bands (ev):

   -44.8424 -44.8417 -21.3153 -21.3051 -21.2601 -21.2325 -21.2229 -21.2215
   -14.3412 -11.5675 -11.5365 -11.4979 -11.4865 -11.4749  -7.2294  -6.4465
    -5.8366  -5.6542  -5.5455  -5.4793   0.4897   0.5275   0.5582   1.6855
     6.2656   6.2660   7.2312   7.3268   7.8741   7.9818   8.1260   8.4068
     8.4648   8.6594   8.7833   9.0570   9.3262   9.4899   9.5219   9.6430
     9.6895   9.9895  13.3585  13.4989  13.6067  13.6529  14.2926  14.3375
    14.5755  14.9637  15.6794  15.7470

     occupation numbers 
     1.0000   1.0000   1.0000   1.0000   1.0000   1.0000   1.0000   1.0000
     1.0000   1.0000   1.0000   1.0000   1.0000   1.0000   1.0000   1.0000
     1.0000   1.0000   1.0000   1.0000   1.0000   1.0000   1.0000   1.0000
     1.0000   1.0000   1.0000   1.0000   1.0000   1.0000   1.0000   1.0000
     1.0000   1.0000   1.0000   1.0000   1.0000   1.0000   1.0000   1.0000
     1.0000   1.0000   0.7119   0.2907   0.0578   0.0045  -0.0000  -0.0000
    -0.0000  -0.0000  -0.0000  -0.0000

          k = 0.0000 0.1676 0.2868 (  5126 PWs)   bands (ev):

   -44.8419 -44.8412 -21.3351 -21.3286 -21.2655 -21.2344 -21.2219 -21.2207
   -14.2989 -11.5637 -11.5486 -11.4919 -11.4825 -11.4746  -7.0976  -6.3818
    -5.8285  -5.7015  -5.4262  -5.3386   0.4923   0.5336   0.6408   1.4769
     6.2077   6.4296   6.9887   7.1556   7.3296   7.6892   7.8376   7.9618
     8.1982   8.3403   8.5481   8.7985   9.1773   9.2158   9.3454   9.4261
     9.7246  10.0218  13.4332  14.1271  14.1826  14.2285  14.3335  14.3581
    14.6228  15.0689  15.7764  15.8051

     occupation numbers 
     1.0000   1.0000   1.0000   1.0000   1.0000   1.0000   1.0000   1.0000
     1.0000   1.0000   1.0000   1.0000   1.0000   1.0000   1.0000   1.0000
     1.0000   1.0000   1.0000   1.0000   1.0000   1.0000   1.0000   1.0000
     1.0000   1.0000   1.0000   1.0000   1.0000   1.0000   1.0000   1.0000
     1.0000   1.0000   1.0000   1.0000   1.0000   1.0000   1.0000   1.0000
     1.0000   1.0000   0.4875  -0.0009  -0.0003  -0.0001  -0.0000  -0.0000
    -0.0000  -0.0000  -0.0000  -0.0000

          k = 0.0000 0.1676 0.4302 (  5109 PWs)   bands (ev):

   -44.8415 -44.8408 -21.3533 -21.3481 -21.2672 -21.2349 -21.2211 -21.2198
   -14.2645 -11.5606 -11.5583 -11.4961 -11.4744 -11.4700  -6.9957  -6.3573
    -5.8233  -5.7299  -5.3238  -5.1907   0.5082   0.5276   0.7101   1.3299
     6.1105   6.5856   6.7145   6.7923   7.0182   7.3822   7.4730   7.7861
     8.0485   8.0936   8.3939   8.7171   8.9137   9.2260   9.2382   9.3254
     9.8364  10.1748  13.4642  13.6509  14.3088  14.7321  14.7484  14.7527
    14.9513  15.4316  15.4623  15.8484

     occupation numbers 
     1.0000   1.0000   1.0000   1.0000   1.0000   1.0000   1.0000   1.0000
     1.0000   1.0000   1.0000   1.0000   1.0000   1.0000   1.0000   1.0000
     1.0000   1.0000   1.0000   1.0000   1.0000   1.0000   1.0000   1.0000
     1.0000   1.0000   1.0000   1.0000   1.0000   1.0000   1.0000   1.0000
     1.0000   1.0000   1.0000   1.0000   1.0000   1.0000   1.0000   1.0000
     1.0000   1.0000   0.3920   0.0063  -0.0000  -0.0000  -0.0000  -0.0000
    -0.0000  -0.0000  -0.0000  -0.0000

          k = 0.1429 0.0000 0.0000 (  5111 PWs)   bands (ev):

   -44.8427 -44.8414 -21.3174 -21.2912 -21.2623 -21.2363 -21.2332 -21.2169
   -14.3419 -11.5598 -11.5300 -11.5029 -11.4902 -11.4794  -7.1553  -6.4804
    -5.8295  -5.6477  -5.5654  -5.5163   0.5323   0.5395   0.5747   1.4710
     6.2229   6.3529   7.0186   7.4825   7.7383   7.9061   8.0043   8.4530
     8.6697   8.8315   8.8630   9.1072   9.1721   9.4108   9.6141   9.8798
     9.9555  10.1350  13.1694  13.2634  13.3450  13.4865  14.5288  14.6470
    14.8532  15.1476  15.4487  15.7017

     occupation numbers 
     1.0000   1.0000   1.0000   1.0000   1.0000   1.0000   1.0000   1.0000
     1.0000   1.0000   1.0000   1.0000   1.0000   1.0000   1.0000   1.0000
     1.0000   1.0000   1.0000   1.0000   1.0000   1.0000   1.0000   1.0000
     1.0000   1.0000   1.0000   1.0000   1.0000   1.0000   1.0000   1.0000
     1.0000   1.0000   1.0000   1.0000   1.0000   1.0000   1.0000   1.0000
     1.0000   1.0000   1.0198   0.9242   0.7485   0.3261  -0.0000  -0.0000
    -0.0000  -0.0000  -0.0000  -0.0000

          k = 0.1429 0.0000 0.1434 (  5102 PWs)   bands (ev):

   -44.8425 -44.8412 -21.3226 -21.3015 -21.2685 -21.2357 -21.2328 -21.2177
   -14.3242 -11.5587 -11.5353 -11.4961 -11.4925 -11.4791  -7.1124  -6.4069
    -5.8243  -5.6465  -5.5155  -5.4905   0.3954   0.5566   0.6209   1.4707
     6.2033   6.2390   6.8808   7.2835   7.7456   7.9150   8.0061   8.1713
     8.4980   8.7316   8.8202   9.0645   9.1561   9.4064   9.4986   9.6794
     9.7871  10.0376  13.2797  13.5015  13.6123  13.6906  14.4021  14.6901
    14.9658  15.0272  15.6330  15.8417

     occupation numbers 
     1.0000   1.0000   1.0000   1.0000   1.0000   1.0000   1.0000   1.0000
     1.0000   1.0000   1.0000   1.0000   1.0000   1.0000   1.0000   1.0000
     1.0000   1.0000   1.0000   1.0000   1.0000   1.0000   1.0000   1.0000
     1.0000   1.0000   1.0000   1.0000   1.0000   1.0000   1.0000   1.0000
     1.0000   1.0000   1.0000   1.0000   1.0000   1.0000   1.0000   1.0000
     1.0000   1.0000   0.8959   0.2837   0.0499  -0.0206  -0.0000  -0.0000
    -0.0000  -0.0000  -0.0000  -0.0000

          k = 0.1429 0.0000 0.2868 (  5103 PWs)   bands (ev):

   -44.8420 -44.8406 -21.3391 -21.3257 -21.2772 -21.2344 -21.2318 -21.2188
   -14.2841 -11.5567 -11.5470 -11.4980 -11.4803 -11.4785  -7.0231  -6.2463
    -5.8172  -5.7029  -5.3894  -5.3549   0.3166   0.5137   0.6045   1.4252
     6.0684   6.1349   6.7287   7.0381   7.5151   7.5945   7.7487   7.8261
     8.1378   8.3373   8.7336   8.7447   8.9674   9.2199   9.5245   9.6428
     9.6567  10.1508  13.3344  14.0239  14.1213  14.2275  14.2408  14.7968
    14.9655  15.2678  15.6420  15.8542

     occupation numbers 
     1.0000   1.0000   1.0000   1.0000   1.0000   1.0000   1.0000   1.0000
     1.0000   1.0000   1.0000   1.0000   1.0000   1.0000   1.0000   1.0000
     1.0000   1.0000   1.0000   1.0000   1.0000   1.0000   1.0000   1.0000
     1.0000   1.0000   1.0000   1.0000   1.0000   1.0000   1.0000   1.0000
     1.0000   1.0000   1.0000   1.0000   1.0000   1.0000   1.0000   1.0000
     1.0000   1.0000   0.7758  -0.0042  -0.0010  -0.0001  -0.0001  -0.0000
    -0.0000  -0.0000  -0.0000  -0.0000

          k = 0.1429 0.0000 0.4302 (  5097 PWs)   bands (ev):

   -44.8416 -44.8402 -21.3560 -21.3455 -21.2804 -21.2335 -21.2310 -21.2190
   -14.2513 -11.5563 -11.5553 -11.5019 -11.4781 -11.4677  -6.9602  -6.1241
    -5.8233  -5.7442  -5.2715  -5.2213   0.3275   0.4778   0.5469   1.3474
     5.9939   6.0472   6.7147   6.7538   6.9770   7.2095   7.5868   7.7667
     8.0583   8.1253   8.4913   8.6594   8.9483   9.0283   9.3376   9.5746
     9.6374  10.3905  13.3769  13.8524  14.6167  14.6950  14.7432  14.7554
    15.1621  15.5729  15.5896  15.8400

     occupation numbers 
     1.0000   1.0000   1.0000   1.0000   1.0000   1.0000   1.0000   1.0000
     1.0000   1.0000   1.0000   1.0000   1.0000   1.0000   1.0000   1.0000
     1.0000   1.0000   1.0000   1.0000   1.0000   1.0000   1.0000   1.0000
     1.0000   1.0000   1.0000   1.0000   1.0000   1.0000   1.0000   1.0000
     1.0000   1.0000   1.0000   1.0000   1.0000   1.0000   1.0000   1.0000
     1.0000   1.0000   0.6594  -0.0251  -0.0000  -0.0000  -0.0000  -0.0000
    -0.0000  -0.0000  -0.0000  -0.0000

          k = 0.1429 0.1676 0.0000 (  5108 PWs)   bands (ev):

   -44.8424 -44.8417 -21.3077 -21.2949 -21.2551 -21.2356 -21.2339 -21.2304
   -14.3414 -11.5602 -11.5299 -11.5031 -11.4902 -11.4793  -7.1734  -6.4007
    -5.8270  -5.7041  -5.5943  -5.4994   0.4873   0.5345   0.5439   1.5494
     6.3113   6.3604   7.2117   7.3998   7.6914   8.0545   8.1321   8.3019
     8.5196   8.6709   9.0498   9.1528   9.1732   9.4045   9.4722   9.7033
     9.8826  10.1031  13.3473  13.4296  13.4441  13.5224  14.2604  14.2975
    14.5875  15.4558  15.6753  15.7397

     occupation numbers 
     1.0000   1.0000   1.0000   1.0000   1.0000   1.0000   1.0000   1.0000
     1.0000   1.0000   1.0000   1.0000   1.0000   1.0000   1.0000   1.0000
     1.0000   1.0000   1.0000   1.0000   1.0000   1.0000   1.0000   1.0000
     1.0000   1.0000   1.0000   1.0000   1.0000   1.0000   1.0000   1.0000
     1.0000   1.0000   1.0000   1.0000   1.0000   1.0000   1.0000   1.0000
     1.0000   1.0000   0.7422   0.4986   0.4535   0.2280  -0.0001  -0.0000
    -0.0000  -0.0000  -0.0000  -0.0000

          k = 0.1429 0.1676 0.1434 (  5115 PWs)   bands (ev):

   -44.8422 -44.8415 -21.3147 -21.3046 -21.2595 -21.2350 -21.2337 -21.2318
   -14.3239 -11.5591 -11.5352 -11.4964 -11.4926 -11.4791  -7.1144  -6.3579
    -5.8218  -5.6920  -5.5405  -5.4745   0.3990   0.4909   0.6492   1.4841
     6.2507   6.3084   7.1487   7.3736   7.6117   7.8880   8.0861   8.1743
     8.4039   8.5154   8.8280   8.9518   9.2193   9.3569   9.5089   9.6082
     9.7837   9.8999  13.4496  13.5743  13.6854  13.7191  14.2849  14.3627
    14.8415  15.1653  15.9270  16.1392

     occupation numbers 
     1.0000   1.0000   1.0000   1.0000   1.0000   1.0000   1.0000   1.0000
     1.0000   1.0000   1.0000   1.0000   1.0000   1.0000   1.0000   1.0000
     1.0000   1.0000   1.0000   1.0000   1.0000   1.0000   1.0000   1.0000
     1.0000   1.0000   1.0000   1.0000   1.0000   1.0000   1.0000   1.0000
     1.0000   1.0000   1.0000   1.0000   1.0000   1.0000   1.0000   1.0000
     1.0000   1.0000   0.4366   0.1122  -0.0180  -0.0307  -0.0000  -0.0000
    -0.0000  -0.0000  -0.0000  -0.0000

          k = 0.1429 0.1676 0.2868 (  5117 PWs)   bands (ev):

   -44.8417 -44.8410 -21.3344 -21.3280 -21.2649 -21.2343 -21.2338 -21.2322
   -14.2838 -11.5569 -11.5470 -11.4980 -11.4806 -11.4786  -6.9838  -6.2881
    -5.8112  -5.6997  -5.4108  -5.3472   0.3339   0.4885   0.6513   1.3528
     6.0841   6.2486   7.0093   7.1637   7.3686   7.6090   7.7093   7.8567
     8.0973   8.2308   8.4184   8.7699   9.0574   9.2092   9.5012   9.5732
     9.6944   9.9970  13.4261  14.0687  14.1730  14.2366  14.3324  14.5885
    14.7540  15.3282  15.8305  16.2621

     occupation numbers 
     1.0000   1.0000   1.0000   1.0000   1.0000   1.0000   1.0000   1.0000
     1.0000   1.0000   1.0000   1.0000   1.0000   1.0000   1.0000   1.0000
     1.0000   1.0000   1.0000   1.0000   1.0000   1.0000   1.0000   1.0000
     1.0000   1.0000   1.0000   1.0000   1.0000   1.0000   1.0000   1.0000
     1.0000   1.0000   1.0000   1.0000   1.0000   1.0000   1.0000   1.0000
     1.0000   1.0000   0.5096  -0.0022  -0.0004  -0.0001  -0.0000  -0.0000
    -0.0000  -0.0000  -0.0000  -0.0000

          k = 0.1429 0.1676 0.4302 (  5094 PWs)   bands (ev):

   -44.8412 -44.8405 -21.3526 -21.3474 -21.2667 -21.2347 -21.2329 -21.2313
   -14.2511 -11.5564 -11.5555 -11.5019 -11.4782 -11.4679  -6.8831  -6.2598
    -5.8028  -5.7074  -5.2989  -5.2018   0.3662   0.4726   0.5773   1.2640
     5.9881   6.1475   6.7595   6.8868   7.0135   7.3287   7.4554   7.7223
     7.9473   8.0419   8.3209   8.7839   8.9336   8.9947   9.4073   9.5313
     9.7848  10.1732  13.3158  14.0123  14.4610  14.5978  14.7307  14.7958
    14.9885  15.6138  15.7119  16.2745

     occupation numbers 
     1.0000   1.0000   1.0000   1.0000   1.0000   1.0000   1.0000   1.0000
     1.0000   1.0000   1.0000   1.0000   1.0000   1.0000   1.0000   1.0000
     1.0000   1.0000   1.0000   1.0000   1.0000   1.0000   1.0000   1.0000
     1.0000   1.0000   1.0000   1.0000   1.0000   1.0000   1.0000   1.0000
     1.0000   1.0000   1.0000   1.0000   1.0000   1.0000   1.0000   1.0000
     1.0000   1.0000   0.8210  -0.0049  -0.0000  -0.0000  -0.0000  -0.0000
    -0.0000  -0.0000  -0.0000  -0.0000

          k = 0.2857 0.0000 0.0000 (  5097 PWs)   bands (ev):

   -44.8422 -44.8409 -21.3158 -21.2902 -21.2634 -21.2610 -21.2597 -21.2159
   -14.3002 -11.5455 -11.5274 -11.5014 -11.4955 -11.4891  -6.9010  -6.2109
    -5.8962  -5.6975  -5.5801  -5.5141   0.5112   0.5790   0.6149   1.0319
     6.2931   6.5545   6.7159   7.2889   7.4055   7.5524   7.9687   8.1142
     8.2232   8.4708   8.6272   8.7915   9.1328   9.3452   9.4753   9.8557
     9.8710  10.1200  13.2609  13.8103  13.9392  14.0890  14.5522  14.6056
    14.9795  15.0774  15.4680  15.8293

     occupation numbers 
     1.0000   1.0000   1.0000   1.0000   1.0000   1.0000   1.0000   1.0000
     1.0000   1.0000   1.0000   1.0000   1.0000   1.0000   1.0000   1.0000
     1.0000   1.0000   1.0000   1.0000   1.0000   1.0000   1.0000   1.0000
     1.0000   1.0000   1.0000   1.0000   1.0000   1.0000   1.0000   1.0000
     1.0000   1.0000   1.0000   1.0000   1.0000   1.0000   1.0000   1.0000
     1.0000   1.0000   0.9281  -0.0317  -0.0117  -0.0016  -0.0000  -0.0000
    -0.0000  -0.0000  -0.0000  -0.0000

          k = 0.2857 0.0000 0.1434 (  5106 PWs)   bands (ev):

   -44.8420 -44.8407 -21.3210 -21.3005 -21.2673 -21.2627 -21.2592 -21.2168
   -14.2847 -11.5474 -11.5324 -11.5011 -11.4899 -11.4886  -6.8513  -6.1413
    -5.8748  -5.6869  -5.5214  -5.4814   0.3519   0.4826   0.5835   1.1475
     6.2713   6.3162   6.5891   6.9506   7.3435   7.5598   7.9959   8.0054
     8.1740   8.4067   8.6670   8.7306   9.2425   9.3942   9.5399   9.6788
     9.7190   9.9602  13.5606  13.8089  14.0777  14.0960  14.3036  14.6922
    15.1419  15.2471  15.6990  15.8365

     occupation numbers 
     1.0000   1.0000   1.0000   1.0000   1.0000   1.0000   1.0000   1.0000
     1.0000   1.0000   1.0000   1.0000   1.0000   1.0000   1.0000   1.0000
     1.0000   1.0000   1.0000   1.0000   1.0000   1.0000   1.0000   1.0000
     1.0000   1.0000   1.0000   1.0000   1.0000   1.0000   1.0000   1.0000
     1.0000   1.0000   1.0000   1.0000   1.0000   1.0000   1.0000   1.0000
     1.0000   1.0000   0.1394  -0.0319  -0.0019  -0.0014  -0.0000  -0.0000
    -0.0000  -0.0000  -0.0000  -0.0000

          k = 0.2857 0.0000 0.2868 (  5104 PWs)   bands (ev):

   -44.8415 -44.8401 -21.3375 -21.3245 -21.2759 -21.2614 -21.2581 -21.2179
   -14.2496 -11.5525 -11.5435 -11.5024 -11.4875 -11.4743  -6.7473  -5.9969
    -5.8379  -5.6789  -5.3668  -5.3668   0.1130   0.4141   0.4250   1.2129
     5.9132   6.1713   6.4510   6.6799   7.2140   7.2795   7.5591   7.6306
     8.0317   8.1673   8.3447   8.7997   9.2097   9.3426   9.4580   9.7462
     9.9093  10.1075  13.8174  14.0600  14.2057  14.2737  14.5050  14.8276
    15.3184  15.5869  15.7448  16.1175

     occupation numbers 
     1.0000   1.0000   1.0000   1.0000   1.0000   1.0000   1.0000   1.0000
     1.0000   1.0000   1.0000   1.0000   1.0000   1.0000   1.0000   1.0000
     1.0000   1.0000   1.0000   1.0000   1.0000   1.0000   1.0000   1.0000
     1.0000   1.0000   1.0000   1.0000   1.0000   1.0000   1.0000   1.0000
     1.0000   1.0000   1.0000   1.0000   1.0000   1.0000   1.0000   1.0000
     1.0000   1.0000  -0.0308  -0.0025  -0.0002  -0.0001  -0.0000  -0.0000
    -0.0000  -0.0000  -0.0000  -0.0000

          k = 0.2857 0.0000 0.4302 (  5091 PWs)   bands (ev):

   -44.8411 -44.8397 -21.3542 -21.3442 -21.2791 -21.2601 -21.2572 -21.2181
   -14.2211 -11.5572 -11.5522 -11.5029 -11.4866 -11.4614  -6.6726  -5.8944
    -5.8211  -5.6738  -5.2449  -5.2175   0.0280   0.2636   0.3552   1.1853
     5.7026   6.0676   6.3931   6.5030   6.8102   6.9618   7.2717   7.3881
     7.7693   8.2880   8.3238   8.7141   9.0877   9.1497   9.3108   9.8634
    10.0561  10.4165  13.8955  14.1084  14.5225  14.7541  14.8587  14.9558
    15.4261  15.8244  15.8551  16.1901

     occupation numbers 
     1.0000   1.0000   1.0000   1.0000   1.0000   1.0000   1.0000   1.0000
     1.0000   1.0000   1.0000   1.0000   1.0000   1.0000   1.0000   1.0000
     1.0000   1.0000   1.0000   1.0000   1.0000   1.0000   1.0000   1.0000
     1.0000   1.0000   1.0000   1.0000   1.0000   1.0000   1.0000   1.0000
     1.0000   1.0000   1.0000   1.0000   1.0000   1.0000   1.0000   1.0000
     1.0000   1.0000  -0.0180  -0.0012  -0.0000  -0.0000  -0.0000  -0.0000
    -0.0000  -0.0000  -0.0000  -0.0000

          k = 0.2857 0.1676 0.0000 (  5122 PWs)   bands (ev):

   -44.8419 -44.8412 -21.3063 -21.2940 -21.2626 -21.2606 -21.2539 -21.2294
   -14.2998 -11.5458 -11.5274 -11.5019 -11.4956 -11.4891  -6.8735  -6.2243
    -5.8390  -5.7796  -5.5971  -5.4900   0.4221   0.5913   0.6150   1.0996
     6.4107   6.5577   6.7741   7.2096   7.4687   7.7206   7.7450   8.0585
     8.2284   8.5117   8.6829   9.0572   9.1408   9.3879   9.4371   9.4793
     9.7973   9.9460  13.4742  13.8144  13.9297  14.0473  14.3139  14.4847
    15.0211  15.0600  15.7831  15.9397

     occupation numbers 
     1.0000   1.0000   1.0000   1.0000   1.0000   1.0000   1.0000   1.0000
     1.0000   1.0000   1.0000   1.0000   1.0000   1.0000   1.0000   1.0000
     1.0000   1.0000   1.0000   1.0000   1.0000   1.0000   1.0000   1.0000
     1.0000   1.0000   1.0000   1.0000   1.0000   1.0000   1.0000   1.0000
     1.0000   1.0000   1.0000   1.0000   1.0000   1.0000   1.0000   1.0000
     1.0000   1.0000   0.3621  -0.0312  -0.0130  -0.0030  -0.0000  -0.0000
    -0.0000  -0.0000  -0.0000  -0.0000

          k = 0.2857 0.1676 0.1434 (  5114 PWs)   bands (ev):

   -44.8417 -44.8410 -21.3133 -21.3035 -21.2620 -21.2601 -21.2582 -21.2309
   -14.2844 -11.5475 -11.5324 -11.5015 -11.4899 -11.4886  -6.8155  -6.1676
    -5.8287  -5.7552  -5.5346  -5.4612   0.3621   0.4247   0.6555   1.0963
     6.3211   6.4061   6.7492   7.0685   7.3705   7.5453   7.7890   8.0079
     8.1275   8.2290   8.6719   8.9898   9.1753   9.3258   9.4619   9.6177
     9.7271   9.7994  13.5872  13.8508  13.9395  14.1842  14.3839  14.4852
    15.1263  15.2954  15.9109  16.2730

     occupation numbers 
     1.0000   1.0000   1.0000   1.0000   1.0000   1.0000   1.0000   1.0000
     1.0000   1.0000   1.0000   1.0000   1.0000   1.0000   1.0000   1.0000
     1.0000   1.0000   1.0000   1.0000   1.0000   1.0000   1.0000   1.0000
     1.0000   1.0000   1.0000   1.0000   1.0000   1.0000   1.0000   1.0000
     1.0000   1.0000   1.0000   1.0000   1.0000   1.0000   1.0000   1.0000
     1.0000   1.0000   0.0888  -0.0254  -0.0117  -0.0003  -0.0000  -0.0000
    -0.0000  -0.0000  -0.0000  -0.0000

          k = 0.2857 0.1676 0.2868 (  5082 PWs)   bands (ev):

   -44.8412 -44.8404 -21.3329 -21.3267 -21.2636 -21.2605 -21.2588 -21.2328
   -14.2494 -11.5524 -11.5434 -11.5027 -11.4874 -11.4743  -6.6890  -6.0697
    -5.8094  -5.7011  -5.3814  -5.3550   0.1499   0.3811   0.5051   1.0983
     5.8912   6.2727   6.6088   6.9560   7.1814   7.4242   7.4903   7.6128
     7.7005   8.0372   8.2959   8.7739   9.0686   9.3492   9.5164   9.7940
     9.9167  10.0083  13.5988  14.1079  14.1763  14.5074  14.5940  14.6854
    15.2192  15.7088  15.9036  16.7274

     occupation numbers 
     1.0000   1.0000   1.0000   1.0000   1.0000   1.0000   1.0000   1.0000
     1.0000   1.0000   1.0000   1.0000   1.0000   1.0000   1.0000   1.0000
     1.0000   1.0000   1.0000   1.0000   1.0000   1.0000   1.0000   1.0000
     1.0000   1.0000   1.0000   1.0000   1.0000   1.0000   1.0000   1.0000
     1.0000   1.0000   1.0000   1.0000   1.0000   1.0000   1.0000   1.0000
     1.0000   1.0000   0.0698  -0.0012  -0.0004  -0.0000  -0.0000  -0.0000
    -0.0000  -0.0000  -0.0000  -0.0000

          k = 0.2857 0.1676 0.4302 (  5087 PWs)   bands (ev):

   -44.8407 -44.8400 -21.3509 -21.3462 -21.2655 -21.2594 -21.2579 -21.2333
   -14.2209 -11.5572 -11.5522 -11.5032 -11.4865 -11.4615  -6.5926  -6.0230
    -5.7927  -5.6603  -5.2479  -5.2234   0.0908   0.2863   0.3319   1.1255
     5.6257   6.0616   6.4219   6.6875   6.9233   7.1717   7.2746   7.4161
     7.5112   8.0114   8.3056   8.5759   9.0082   9.3068   9.5553   9.9080
    10.0439  10.2110  13.5058  14.3692  14.5298  14.6244  14.9575  15.0159
    15.2627  15.9152  15.9529  16.7700

     occupation numbers 
     1.0000   1.0000   1.0000   1.0000   1.0000   1.0000   1.0000   1.0000
     1.0000   1.0000   1.0000   1.0000   1.0000   1.0000   1.0000   1.0000
     1.0000   1.0000   1.0000   1.0000   1.0000   1.0000   1.0000   1.0000
     1.0000   1.0000   1.0000   1.0000   1.0000   1.0000   1.0000   1.0000
     1.0000   1.0000   1.0000   1.0000   1.0000   1.0000   1.0000   1.0000
     1.0000   1.0000   0.2718  -0.0000  -0.0000  -0.0000  -0.0000  -0.0000
    -0.0000  -0.0000  -0.0000  -0.0000

          k = 0.4286 0.0000 0.0000 (  5091 PWs)   bands (ev):

   -44.8418 -44.8405 -21.3145 -21.2893 -21.2850 -21.2807 -21.2602 -21.2152
   -14.2661 -11.5450 -11.5255 -11.5031 -11.4969 -11.4857  -6.6619  -5.9578
    -5.9045  -5.7552  -5.6749  -5.5178   0.4594   0.6256   0.6809   0.7235
     6.1493   6.4408   6.7503   6.9536   7.1074   7.5326   7.8394   7.8909
     8.0619   8.0932   8.4196   8.8026   9.1246   9.1387   9.6818   9.7661
     9.8371   9.9870  13.3316  14.2684  14.3126  14.4245  14.5845  14.6846
    14.8037  15.3940  15.4595  16.0530

     occupation numbers 
     1.0000   1.0000   1.0000   1.0000   1.0000   1.0000   1.0000   1.0000
     1.0000   1.0000   1.0000   1.0000   1.0000   1.0000   1.0000   1.0000
     1.0000   1.0000   1.0000   1.0000   1.0000   1.0000   1.0000   1.0000
     1.0000   1.0000   1.0000   1.0000   1.0000   1.0000   1.0000   1.0000
     1.0000   1.0000   1.0000   1.0000   1.0000   1.0000   1.0000   1.0000
     1.0000   1.0000   0.7829  -0.0001  -0.0000  -0.0000  -0.0000  -0.0000
    -0.0000  -0.0000  -0.0000  -0.0000

          k = 0.4286 0.0000 0.1434 (  5104 PWs)   bands (ev):

   -44.8416 -44.8402 -21.3197 -21.2997 -21.2843 -21.2803 -21.2662 -21.2161
   -14.2525 -11.5498 -11.5302 -11.5008 -11.4962 -11.4802  -6.5962  -5.9459
    -5.8499  -5.7318  -5.5968  -5.4736   0.3522   0.4219   0.5175   0.9209
     6.1386   6.3781   6.6225   6.6400   6.9330   7.1795   7.8652   7.9026
     8.0448   8.1875   8.6032   8.7631   9.1225   9.3703   9.5643   9.5928
     9.6865   9.9537  13.6342  14.1818  14.2596  14.5472  14.5535  14.7451
    14.9982  15.5598  15.8141  16.0290

     occupation numbers 
     1.0000   1.0000   1.0000   1.0000   1.0000   1.0000   1.0000   1.0000
     1.0000   1.0000   1.0000   1.0000   1.0000   1.0000   1.0000   1.0000
     1.0000   1.0000   1.0000   1.0000   1.0000   1.0000   1.0000   1.0000
     1.0000   1.0000   1.0000   1.0000   1.0000   1.0000   1.0000   1.0000
     1.0000   1.0000   1.0000   1.0000   1.0000   1.0000   1.0000   1.0000
     1.0000   1.0000   0.0228  -0.0003  -0.0001  -0.0000  -0.0000  -0.0000
    -0.0000  -0.0000  -0.0000  -0.0000

          k = 0.4286 0.0000 0.2868 (  5089 PWs)   bands (ev):

   -44.8411 -44.8397 -21.3362 -21.3236 -21.2827 -21.2790 -21.2747 -21.2171
   -14.2216 -11.5607 -11.5407 -11.4976 -11.4945 -11.4658  -6.4564  -5.9242
    -5.7564  -5.6690  -5.3799  -5.3639   0.0112   0.2731   0.3313   0.9965
     6.0293   6.0858   6.3005   6.3929   6.7214   6.8758   7.5304   7.5918
     7.9545   8.0660   8.2087   8.7746   8.9777   9.1885   9.8002   9.9659
    10.0424  10.1030  14.1107  14.2782  14.3873  14.5862  14.7338  14.8576
    15.4592  15.8690  15.9722  16.2023

     occupation numbers 
     1.0000   1.0000   1.0000   1.0000   1.0000   1.0000   1.0000   1.0000
     1.0000   1.0000   1.0000   1.0000   1.0000   1.0000   1.0000   1.0000
     1.0000   1.0000   1.0000   1.0000   1.0000   1.0000   1.0000   1.0000
     1.0000   1.0000   1.0000   1.0000   1.0000   1.0000   1.0000   1.0000
     1.0000   1.0000   1.0000   1.0000   1.0000   1.0000   1.0000   1.0000
     1.0000   1.0000  -0.0011  -0.0000  -0.0000  -0.0000  -0.0000  -0.0000
    -0.0000  -0.0000  -0.0000  -0.0000

          k = 0.4286 0.0000 0.4302 (  5074 PWs)   bands (ev):

   -44.8406 -44.8393 -21.3527 -21.3432 -21.2813 -21.2780 -21.2780 -21.2173
   -14.1964 -11.5693 -11.5490 -11.4958 -11.4933 -11.4533  -6.3546  -5.9111
    -5.6945  -5.6081  -5.2632  -5.1788  -0.1806   0.0766   0.2526   0.9992
     5.7644   5.9771   6.0764   6.2993   6.5537   6.8655   7.0108   7.0187
     7.7837   8.0315   8.0331   8.9147   8.9257   9.0257   9.8518  10.3111
    10.3335  10.4294  14.2181  14.5340  14.7269  14.7630  14.9116  15.1471
    15.7445  15.9962  16.0976  16.3432

     occupation numbers 
     1.0000   1.0000   1.0000   1.0000   1.0000   1.0000   1.0000   1.0000
     1.0000   1.0000   1.0000   1.0000   1.0000   1.0000   1.0000   1.0000
     1.0000   1.0000   1.0000   1.0000   1.0000   1.0000   1.0000   1.0000
     1.0000   1.0000   1.0000   1.0000   1.0000   1.0000   1.0000   1.0000
     1.0000   1.0000   1.0000   1.0000   1.0000   1.0000   1.0000   1.0000
     1.0000   1.0000  -0.0002  -0.0000  -0.0000  -0.0000  -0.0000  -0.0000
    -0.0000  -0.0000  -0.0000  -0.0000

          k = 0.4286 0.1676 0.0000 (  5111 PWs)   bands (ev):

   -44.8415 -44.8408 -21.3052 -21.2930 -21.2841 -21.2818 -21.2530 -21.2285
   -14.2659 -11.5450 -11.5255 -11.5037 -11.4969 -11.4858  -6.5483  -6.1291
    -5.9512  -5.7506  -5.5980  -5.4983   0.3586   0.6357   0.6823   0.8068
     6.3447   6.4433   6.4962   6.9494   7.3633   7.5824   7.7284   7.8415
     8.0530   8.1367   8.5246   8.8326   9.0534   9.2583   9.4691   9.6891
     9.7929   9.9054  13.5334  14.1446  14.2226  14.4009  14.4962  14.5542
    14.7967  15.3376  15.7824  16.0681

     occupation numbers 
     1.0000   1.0000   1.0000   1.0000   1.0000   1.0000   1.0000   1.0000
     1.0000   1.0000   1.0000   1.0000   1.0000   1.0000   1.0000   1.0000
     1.0000   1.0000   1.0000   1.0000   1.0000   1.0000   1.0000   1.0000
     1.0000   1.0000   1.0000   1.0000   1.0000   1.0000   1.0000   1.0000
     1.0000   1.0000   1.0000   1.0000   1.0000   1.0000   1.0000   1.0000
     1.0000   1.0000   0.2006  -0.0006  -0.0001  -0.0000  -0.0000  -0.0000
    -0.0000  -0.0000  -0.0000  -0.0000

          k = 0.4286 0.1676 0.1434 (  5095 PWs)   bands (ev):

   -44.8413 -44.8406 -21.3121 -21.3026 -21.2833 -21.2812 -21.2572 -21.2300
   -14.2523 -11.5497 -11.5302 -11.5013 -11.4962 -11.4803  -6.4868  -6.0588
    -5.9247  -5.7397  -5.5336  -5.4576   0.3447   0.4441   0.5600   0.8429
     6.3231   6.3997   6.5449   6.7823   7.0553   7.2246   7.5715   7.8025
     7.9150   8.2753   8.6298   8.9070   9.0586   9.3479   9.3633   9.6767
     9.7454   9.8527  13.6113  14.1368  14.2756  14.3772  14.6279  14.7892
    14.8822  15.5672  16.1062  16.2557

     occupation numbers 
     1.0000   1.0000   1.0000   1.0000   1.0000   1.0000   1.0000   1.0000
     1.0000   1.0000   1.0000   1.0000   1.0000   1.0000   1.0000   1.0000
     1.0000   1.0000   1.0000   1.0000   1.0000   1.0000   1.0000   1.0000
     1.0000   1.0000   1.0000   1.0000   1.0000   1.0000   1.0000   1.0000
     1.0000   1.0000   1.0000   1.0000   1.0000   1.0000   1.0000   1.0000
     1.0000   1.0000   0.0513  -0.0007  -0.0000  -0.0000  -0.0000  -0.0000
    -0.0000  -0.0000  -0.0000  -0.0000

          k = 0.4286 0.1676 0.2868 (  5084 PWs)   bands (ev):

   -44.8407 -44.8400 -21.3316 -21.3257 -21.2818 -21.2799 -21.2625 -21.2319
   -14.2214 -11.5605 -11.5406 -11.4981 -11.4946 -11.4658  -6.3577  -5.9317
    -5.8520  -5.7094  -5.3682  -5.3460   0.1005   0.2666   0.3184   0.9185
     6.0331   6.1598   6.3173   6.5417   6.6786   7.0993   7.4661   7.5663
     7.6385   7.8898   8.3574   8.5440   9.2321   9.3974   9.6370   9.9190
    10.0202  10.0519  13.9128  14.1210  14.3555  14.6880  14.8688  14.9167
    15.4076  15.9077  16.0255  16.7993

     occupation numbers 
     1.0000   1.0000   1.0000   1.0000   1.0000   1.0000   1.0000   1.0000
     1.0000   1.0000   1.0000   1.0000   1.0000   1.0000   1.0000   1.0000
     1.0000   1.0000   1.0000   1.0000   1.0000   1.0000   1.0000   1.0000
     1.0000   1.0000   1.0000   1.0000   1.0000   1.0000   1.0000   1.0000
     1.0000   1.0000   1.0000   1.0000   1.0000   1.0000   1.0000   1.0000
     1.0000   1.0000  -0.0153  -0.0010  -0.0000  -0.0000  -0.0000  -0.0000
    -0.0000  -0.0000  -0.0000  -0.0000

          k = 0.4286 0.1676 0.4302 (  5068 PWs)   bands (ev):

   -44.8403 -44.8396 -21.3496 -21.3450 -21.2805 -21.2788 -21.2644 -21.2326
   -14.1963 -11.5691 -11.5490 -11.4961 -11.4933 -11.4533  -6.2643  -5.8780
    -5.7820  -5.6589  -5.2567  -5.1924  -0.0938   0.0893   0.1673   1.0326
     5.6783   5.8595   6.1639   6.2696   6.4993   6.9793   7.0074   7.1430
     7.6936   7.9584   8.3405   8.4547   9.1919   9.4022   9.6854  10.1621
    10.3149  10.3272  13.9219  14.4491  14.5280  14.9255  15.0562  15.2127
    15.7489  15.9341  16.1135  16.9059

     occupation numbers 
     1.0000   1.0000   1.0000   1.0000   1.0000   1.0000   1.0000   1.0000
     1.0000   1.0000   1.0000   1.0000   1.0000   1.0000   1.0000   1.0000
     1.0000   1.0000   1.0000   1.0000   1.0000   1.0000   1.0000   1.0000
     1.0000   1.0000   1.0000   1.0000   1.0000   1.0000   1.0000   1.0000
     1.0000   1.0000   1.0000   1.0000   1.0000   1.0000   1.0000   1.0000
     1.0000   1.0000  -0.0140  -0.0000  -0.0000  -0.0000  -0.0000  -0.0000
    -0.0000  -0.0000  -0.0000  -0.0000

     the Fermi energy is    13.4292 ev

!    total energy              =    -776.38698034 Ry
     Harris-Foulkes estimate   =    -776.38698035 Ry
     estimated scf accuracy    <          5.6E-09 Ry

     The total energy is the sum of the following terms:

     one-electron contribution =    -178.74630848 Ry
     hartree contribution      =     143.27098867 Ry
     xc contribution           =    -133.63293670 Ry
     ewald contribution        =    -480.14938823 Ry
     one-center paw contrib.   =    -127.12711839 Ry
     smearing contrib. (-TS)   =      -0.00221721 Ry

     convergence has been achieved in  19 iterations

     Writing output data file Pmm2.save
 
     init_run     :      1.41s CPU      1.49s WALL (       1 calls)
     electrons    :     45.65s CPU     47.04s WALL (       1 calls)

     Called by init_run:
     wfcinit      :      0.51s CPU      0.54s WALL (       1 calls)
     potinit      :      0.25s CPU      0.26s WALL (       1 calls)

     Called by electrons:
     c_bands      :     37.11s CPU     38.27s WALL (      19 calls)
     sum_band     :      5.35s CPU      5.44s WALL (      19 calls)
     v_of_rho     :      0.20s CPU      0.20s WALL (      20 calls)
     v_h          :      0.00s CPU      0.01s WALL (      20 calls)
     v_xc         :      0.19s CPU      0.19s WALL (      20 calls)
     newd         :      1.46s CPU      1.47s WALL (      20 calls)
     PAW_pot      :      1.62s CPU      1.71s WALL (      20 calls)
     mix_rho      :      0.03s CPU      0.03s WALL (      19 calls)

     Called by c_bands:
     init_us_2    :      0.07s CPU      0.31s WALL (    1248 calls)
     cegterg      :     35.99s CPU     36.84s WALL (     608 calls)

     Called by sum_band:
     sum_band:bec :      0.00s CPU      0.03s WALL (     608 calls)
     addusdens    :      2.05s CPU      2.05s WALL (      19 calls)

     Called by *egterg:
     h_psi        :     14.18s CPU     14.76s WALL (    2878 calls)
     s_psi        :      0.44s CPU      0.69s WALL (    2878 calls)
     g_psi        :      0.01s CPU      0.09s WALL (    2238 calls)
     cdiaghg      :     15.81s CPU     16.59s WALL (    2846 calls)
     cegterg:over :      1.63s CPU      1.68s WALL (    2238 calls)
     cegterg:upda :      1.33s CPU      1.36s WALL (    2238 calls)
     cegterg:last :      0.51s CPU      0.53s WALL (     608 calls)
     cdiaghg:chol :      0.76s CPU      0.78s WALL (    2846 calls)
     cdiaghg:inve :      0.40s CPU      0.61s WALL (    2846 calls)
     cdiaghg:para :      1.37s CPU      1.17s WALL (    5692 calls)

     Called by h_psi:
     h_psi:vloc   :     11.77s CPU     12.84s WALL (    2878 calls)
     h_psi:vnl    :      2.38s CPU      1.83s WALL (    2878 calls)
     add_vuspsi   :      0.16s CPU      0.73s WALL (    2878 calls)

     General routines
     calbec       :      2.81s CPU      1.41s WALL (    3486 calls)
     fft          :      0.15s CPU      0.18s WALL (     316 calls)
     ffts         :      0.01s CPU      0.01s WALL (      39 calls)
     fftw         :     12.58s CPU     13.44s WALL (  191218 calls)
     interpolate  :      0.01s CPU      0.03s WALL (      39 calls)
     davcio       :      0.00s CPU      0.00s WALL (      32 calls)
 
     Parallel routines
     fft_scatter  :      5.29s CPU      5.44s WALL (  191573 calls)

     PAW routines
     PAW_pot      :      1.62s CPU      1.71s WALL (      20 calls)
     PAW_symme    :      0.01s CPU      0.00s WALL (      39 calls)
 
     PWSCF        :    48.09s CPU        51.37s WALL

 
   This run was terminated on:  17:56:47  12Sep2018            

=------------------------------------------------------------------------------=
   JOB DONE.
=------------------------------------------------------------------------------=
