
     Program PWSCF v.5.4.0 starts on 23Jan2018 at 15:10:23 

     This program is part of the open-source Quantum ESPRESSO suite
     for quantum simulation of materials; please cite
         "P. Giannozzi et al., J. Phys.:Condens. Matter 21 395502 (2009);
          URL http://www.quantum-espresso.org", 
     in publications or presentations arising from this work. More details at
     http://www.quantum-espresso.org/quote

     Parallel version (MPI), running on    20 processors
     R & G space division:  proc/nbgrp/npool/nimage =      20
     Waiting for input...
     Reading input from standard input

     Current dimensions of program PWSCF are:
     Max number of different atomic species (ntypx) = 10
     Max number of k-points (npk) =  40000
     Max angular momentum in pseudopotentials (lmaxx) =  3

     Subspace diagonalization in iterative solution of the eigenvalue problem:
     one sub-group per band group will be used
     scalapack distributed-memory algorithm (size of sub-group:  3*  3 procs)

 
     Parallelization info
     --------------------
     sticks:   dense  smooth     PW     G-vecs:    dense   smooth      PW
     Min          12      12      4                  122      122      22
     Max          13      13      5                  125      125      24
     Sum         241     241     85                 2445     2445     459
 


     bravais-lattice index     =            2
     lattice parameter (alat)  =      10.5000  a.u.
     unit-cell volume          =     289.4062 (a.u.)^3
     number of atoms/cell      =            2
     number of atomic types    =            2
     number of electrons       =         8.00
     number of Kohn-Sham states=            4
     kinetic-energy cutoff     =      16.0000  Ry
     charge density cutoff     =      64.0000  Ry
     convergence threshold     =      1.0E-08
     mixing beta               =       0.7000
     number of iterations used =            8  plain     mixing
     Exchange-correlation      = LDA ( 1  1  0  0 0 0)

     celldm(1)=  10.500000  celldm(2)=   0.000000  celldm(3)=   0.000000
     celldm(4)=   0.000000  celldm(5)=   0.000000  celldm(6)=   0.000000

     crystal axes: (cart. coord. in units of alat)
               a(1) = (  -0.500000   0.000000   0.500000 )  
               a(2) = (   0.000000   0.500000   0.500000 )  
               a(3) = (  -0.500000   0.500000   0.000000 )  

     reciprocal axes: (cart. coord. in units 2 pi/alat)
               b(1) = ( -1.000000 -1.000000  1.000000 )  
               b(2) = (  1.000000  1.000000  1.000000 )  
               b(3) = ( -1.000000  1.000000 -1.000000 )  


     PseudoPot. # 1 for Al read from file:
     /home/cgduan/fyw/vaspwork/BaPd2As2/I4mmm/pwscf-pbe/lambda/example/Al.pz-n-rrkjus_psl.1.0.0.UPF
     MD5 check sum: f5695b695079f854d95bbc9af2522990
     Pseudo is Ultrasoft + core correction, Zval =  3.0
     Generated using "atomic" code by A. Dal Corso  v.5.4.0
     Using radial grid of 1135 points,  6 beta functions with: 
                l(1) =   0
                l(2) =   0
                l(3) =   1
                l(4) =   1
                l(5) =   2
                l(6) =   2
     Q(r) pseudized with 0 coefficients 


     PseudoPot. # 2 for As read from file:
     /home/cgduan/fyw/vaspwork/BaPd2As2/I4mmm/pwscf-pbe/lambda/example/As.pz-n-rrkjus_psl.1.0.0.UPF
     MD5 check sum: c8743154813d3906a91a0b6d88773858
     Pseudo is Ultrasoft + core correction, Zval =  5.0
     Generated using "atomic" code by A. Dal Corso  v.5.4.0
     Using radial grid of 1209 points,  4 beta functions with: 
                l(1) =   0
                l(2) =   0
                l(3) =   1
                l(4) =   1
     Q(r) pseudized with 0 coefficients 


     atomic species   valence    mass     pseudopotential
        Al             3.00    26.98000     Al( 1.00)
        As             5.00    74.92000     As( 1.00)

     24 Sym. Ops. (no inversion) found



   Cartesian axes

     site n.     atom                  positions (alat units)
         1           Al  tau(   1) = (   0.0000000   0.0000000   0.0000000  )
         2           As  tau(   2) = (   0.2500000   0.2500000   0.2500000  )

     number of k points=     2
                       cart. coord. in units 2pi/alat
        k(    1) = (   0.2500000   0.2500000   0.2500000), wk =   0.5000000
        k(    2) = (   0.2500000   0.2500000   0.7500000), wk =   1.5000000

     Dense  grid:     2445 G-vectors     FFT dimensions: (  20,  20,  20)

     Largest allocated arrays     est. size (Mb)     dimensions
        Kohn-Sham Wavefunctions         0.00 Mb     (      16,    4)
        NL pseudopotentials             0.01 Mb     (      16,   26)
        Each V/rho on FFT grid          0.01 Mb     (     400)
        Each G-vector array             0.00 Mb     (     123)
        G-vector shells                 0.00 Mb     (      53)
     Largest temporary arrays     est. size (Mb)     dimensions
        Auxiliary wavefunctions         0.00 Mb     (      16,   16)
        Each subspace H/S matrix        0.00 Mb     (       5,    5)
        Each <psi_i|beta_j> matrix      0.00 Mb     (      26,    4)
        Arrays for rho mixing           0.05 Mb     (     400,    8)

     Check: negative/imaginary core charge=   -0.000006    0.000000

     Initial potential from superposition of free atoms

     starting charge    7.99777, renormalised to    8.00000
     Starting wfc are    8 randomized atomic wfcs

     total cpu time spent up to now is        1.3 secs

     per-process dynamical memory:     5.9 Mb

     Self-consistent Calculation

     iteration #  1     ecut=    16.00 Ry     beta=0.70
     Davidson diagonalization with overlap
     ethr =  1.00E-02,  avg # of iterations =  2.0

     Threshold (ethr) on eigenvalues was too large:
     Diagonalizing with lowered threshold

     Davidson diagonalization with overlap
     ethr =  8.80E-04,  avg # of iterations =  1.5

     total cpu time spent up to now is        1.3 secs

     total energy              =     -25.63857754 Ry
     Harris-Foulkes estimate   =     -25.67513030 Ry
     estimated scf accuracy    <       0.07250908 Ry

     iteration #  2     ecut=    16.00 Ry     beta=0.70
     Davidson diagonalization with overlap
     ethr =  9.06E-04,  avg # of iterations =  2.0

     total cpu time spent up to now is        1.3 secs

     total energy              =     -25.64973222 Ry
     Harris-Foulkes estimate   =     -25.65333471 Ry
     estimated scf accuracy    <       0.00636482 Ry

     iteration #  3     ecut=    16.00 Ry     beta=0.70
     Davidson diagonalization with overlap
     ethr =  7.96E-05,  avg # of iterations =  2.0

     total cpu time spent up to now is        1.4 secs

     total energy              =     -25.65105752 Ry
     Harris-Foulkes estimate   =     -25.65113578 Ry
     estimated scf accuracy    <       0.00030976 Ry

     iteration #  4     ecut=    16.00 Ry     beta=0.70
     Davidson diagonalization with overlap
     ethr =  3.87E-06,  avg # of iterations =  2.0

     total cpu time spent up to now is        1.4 secs

     total energy              =     -25.65108026 Ry
     Harris-Foulkes estimate   =     -25.65108818 Ry
     estimated scf accuracy    <       0.00001184 Ry

     iteration #  5     ecut=    16.00 Ry     beta=0.70
     Davidson diagonalization with overlap
     ethr =  1.48E-07,  avg # of iterations =  3.0

     total cpu time spent up to now is        1.4 secs

     total energy              =     -25.65108443 Ry
     Harris-Foulkes estimate   =     -25.65108770 Ry
     estimated scf accuracy    <       0.00000513 Ry

     iteration #  6     ecut=    16.00 Ry     beta=0.70
     Davidson diagonalization with overlap
     ethr =  6.41E-08,  avg # of iterations =  2.0

     total cpu time spent up to now is        1.4 secs

     total energy              =     -25.65108559 Ry
     Harris-Foulkes estimate   =     -25.65108563 Ry
     estimated scf accuracy    <       0.00000009 Ry

     iteration #  7     ecut=    16.00 Ry     beta=0.70
     Davidson diagonalization with overlap
     ethr =  1.07E-09,  avg # of iterations =  3.0

     total cpu time spent up to now is        1.4 secs

     End of self-consistent calculation

          k = 0.2500 0.2500 0.2500 (   311 PWs)   bands (ev):

    -6.4111   1.6676   4.7022   4.7022

          k = 0.2500 0.2500 0.7500 (   311 PWs)   bands (ev):

    -5.2350  -0.0673   2.2815   3.4864

     highest occupied level (ev):     4.7022

!    total energy              =     -25.65108562 Ry
     Harris-Foulkes estimate   =     -25.65108563 Ry
     estimated scf accuracy    <          4.4E-09 Ry

     The total energy is the sum of the following terms:

     one-electron contribution =       4.14163352 Ry
     hartree contribution      =       1.56933635 Ry
     xc contribution           =     -14.22458957 Ry
     ewald contribution        =     -17.13746592 Ry

     convergence has been achieved in   7 iterations

     Forces acting on atoms (Ry/au):

     atom    1 type  1   force =     0.00000000    0.00000000   -0.00000000
     atom    2 type  2   force =     0.00000000    0.00000000    0.00000000

     Total force =     0.000000     Total SCF correction =     0.000000


     entering subroutine stress ...

          total   stress  (Ry/bohr**3)                   (kbar)     P=   37.16
   0.00025261   0.00000000  -0.00000000         37.16      0.00     -0.00
   0.00000000   0.00025261   0.00000000          0.00     37.16      0.00
  -0.00000000  -0.00000000   0.00025261         -0.00     -0.00     37.16


     Writing output data file alas.save
 
     init_run     :      0.05s CPU      0.06s WALL (       1 calls)
     electrons    :      0.07s CPU      0.62s WALL (       1 calls)
     forces       :      0.01s CPU      0.01s WALL (       1 calls)
     stress       :      0.01s CPU      0.01s WALL (       1 calls)

     Called by init_run:
     wfcinit      :      0.01s CPU      0.01s WALL (       1 calls)
     potinit      :      0.00s CPU      0.00s WALL (       1 calls)

     Called by electrons:
     c_bands      :      0.06s CPU      0.08s WALL (       8 calls)
     sum_band     :      0.01s CPU      0.01s WALL (       8 calls)
     v_of_rho     :      0.00s CPU      0.00s WALL (       8 calls)
     newd         :      0.00s CPU      0.00s WALL (       8 calls)
     mix_rho      :      0.00s CPU      0.00s WALL (       8 calls)

     Called by c_bands:
     init_us_2    :      0.00s CPU      0.00s WALL (      38 calls)
     cegterg      :      0.06s CPU      0.08s WALL (      16 calls)

     Called by sum_band:
     sum_band:bec :      0.00s CPU      0.00s WALL (      16 calls)
     addusdens    :      0.00s CPU      0.00s WALL (       8 calls)

     Called by *egterg:
     h_psi        :      0.01s CPU      0.02s WALL (      53 calls)
     s_psi        :      0.00s CPU      0.00s WALL (      53 calls)
     g_psi        :      0.00s CPU      0.00s WALL (      35 calls)
     cdiaghg      :      0.04s CPU      0.05s WALL (      49 calls)

     Called by h_psi:
     add_vuspsi   :      0.00s CPU      0.00s WALL (      53 calls)

     General routines
     calbec       :      0.00s CPU      0.00s WALL (      79 calls)
     fft          :      0.00s CPU      0.00s WALL (      58 calls)
     fftw         :      0.01s CPU      0.02s WALL (     460 calls)
     davcio       :      0.00s CPU      0.00s WALL (       2 calls)
 
     Parallel routines
     fft_scatter  :      0.01s CPU      0.02s WALL (     518 calls)
 
     PWSCF        :     0.67s CPU         6.66s WALL

 
   This run was terminated on:  15:10:30  23Jan2018            

=------------------------------------------------------------------------------=
   JOB DONE.
=------------------------------------------------------------------------------=
