
     Program PHONON v.5.4.0 starts on 23Jan2018 at 15:14:51 

     This program is part of the open-source Quantum ESPRESSO suite
     for quantum simulation of materials; please cite
         "P. Giannozzi et al., J. Phys.:Condens. Matter 21 395502 (2009);
          URL http://www.quantum-espresso.org", 
     in publications or presentations arising from this work. More details at
     http://www.quantum-espresso.org/quote

     Parallel version (MPI), running on    20 processors
     R & G space division:  proc/nbgrp/npool/nimage =      20

     Reading data from directory:
     ./tmp/7/alas.save

   Info: using nr1, nr2, nr3 values from input

   Info: using nr1, nr2, nr3 values from input

     IMPORTANT: XC functional enforced from input :
     Exchange-correlation      = LDA ( 1  1  0  0 0 0)
     Any further DFT definition will be discarded
     Please, verify this is what you really want

 
     Parallelization info
     --------------------
     sticks:   dense  smooth     PW     G-vecs:    dense   smooth      PW
     Min          12      12      4                  122      122      22
     Max          13      13      5                  125      125      24
     Sum         241     241     85                 2445     2445     459
 

     Check: negative/imaginary core charge=   -0.000006    0.000000


     Dynamical matrices for ( 4, 4, 4)  uniform grid of q-points
     (   8q-points):
       N         xq(1)         xq(2)         xq(3) 
       1   0.000000000   0.000000000   0.000000000
       2  -0.250000000   0.250000000  -0.250000000
       3   0.500000000  -0.500000000   0.500000000
       4   0.000000000   0.500000000   0.000000000
       5   0.750000000  -0.250000000   0.750000000
       6   0.500000000   0.000000000   0.500000000
       7   0.000000000  -1.000000000   0.000000000
       8  -0.500000000  -1.000000000   0.000000000

     Calculation of q =    0.0000000  -1.0000000   0.0000000
 
     Parallelization info
     --------------------
     sticks:   dense  smooth     PW     G-vecs:    dense   smooth      PW
     Min          12      12      4                  122      122      29
     Max          13      13      5                  125      125      33
     Sum         241     241     91                 2445     2445     609
 
     Message from routine sym_rho_init:
     likely internal error: no G-vectors found


     bravais-lattice index     =            2
     lattice parameter (alat)  =      10.5000  a.u.
     unit-cell volume          =     289.4062 (a.u.)^3
     number of atoms/cell      =            2
     number of atomic types    =            2
     number of electrons       =         8.00
     number of Kohn-Sham states=            4
     kinetic-energy cutoff     =      16.0000  Ry
     charge density cutoff     =      64.0000  Ry
     Exchange-correlation      = LDA ( 1  1  0  0 0 0)

     celldm(1)=  10.500000  celldm(2)=   0.000000  celldm(3)=   0.000000
     celldm(4)=   0.000000  celldm(5)=   0.000000  celldm(6)=   0.000000

     crystal axes: (cart. coord. in units of alat)
               a(1) = (  -0.500000   0.000000   0.500000 )  
               a(2) = (   0.000000   0.500000   0.500000 )  
               a(3) = (  -0.500000   0.500000   0.000000 )  

     reciprocal axes: (cart. coord. in units 2 pi/alat)
               b(1) = ( -1.000000 -1.000000  1.000000 )  
               b(2) = (  1.000000  1.000000  1.000000 )  
               b(3) = ( -1.000000  1.000000 -1.000000 )  


     PseudoPot. # 1 for Al read from file:
     /home/cgduan/fyw/vaspwork/BaPd2As2/I4mmm/pwscf-pbe/lambda/example/Al.pz-n-rrkjus_psl.1.0.0.UPF
     MD5 check sum: f5695b695079f854d95bbc9af2522990
     Pseudo is Ultrasoft + core correction, Zval =  3.0
     Generated using "atomic" code by A. Dal Corso  v.5.4.0
     Using radial grid of 1135 points,  6 beta functions with: 
                l(1) =   0
                l(2) =   0
                l(3) =   1
                l(4) =   1
                l(5) =   2
                l(6) =   2
     Q(r) pseudized with 0 coefficients 


     PseudoPot. # 2 for As read from file:
     /home/cgduan/fyw/vaspwork/BaPd2As2/I4mmm/pwscf-pbe/lambda/example/As.pz-n-rrkjus_psl.1.0.0.UPF
     MD5 check sum: c8743154813d3906a91a0b6d88773858
     Pseudo is Ultrasoft + core correction, Zval =  5.0
     Generated using "atomic" code by A. Dal Corso  v.5.4.0
     Using radial grid of 1209 points,  4 beta functions with: 
                l(1) =   0
                l(2) =   0
                l(3) =   1
                l(4) =   1
     Q(r) pseudized with 0 coefficients 


     atomic species   valence    mass     pseudopotential
        Al             3.00    26.98000     Al( 1.00)
        As             5.00    74.92000     As( 1.00)

     24 Sym. Ops. (no inversion) found



   Cartesian axes

     site n.     atom                  positions (alat units)
         1           Al  tau(   1) = (   0.0000000   0.0000000   0.0000000  )
         2           As  tau(   2) = (   0.2500000   0.2500000   0.2500000  )

     number of k points=     6
                       cart. coord. in units 2pi/alat
        k(    1) = (   0.2500000   0.2500000   0.2500000), wk =   0.5000000
        k(    2) = (   0.2500000  -0.7500000   0.2500000), wk =   0.0000000
        k(    3) = (   0.2500000   0.2500000   0.7500000), wk =   1.0000000
        k(    4) = (   0.2500000  -0.7500000   0.7500000), wk =   0.0000000
        k(    5) = (   0.2500000  -0.7500000  -0.2500000), wk =   0.5000000
        k(    6) = (   0.2500000  -1.7500000  -0.2500000), wk =   0.0000000

     Dense  grid:     2445 G-vectors     FFT dimensions: (  20,  20,  20)

     Largest allocated arrays     est. size (Mb)     dimensions
        Kohn-Sham Wavefunctions         0.00 Mb     (      17,    4)
        NL pseudopotentials             0.01 Mb     (      17,   26)
        Each V/rho on FFT grid          0.01 Mb     (     400)
        Each G-vector array             0.00 Mb     (     123)
        G-vector shells                 0.00 Mb     (      46)
     Largest temporary arrays     est. size (Mb)     dimensions
        Auxiliary wavefunctions         0.00 Mb     (      17,   16)
        Each subspace H/S matrix        0.00 Mb     (       5,    5)
        Each <psi_i|beta_j> matrix      0.00 Mb     (      26,    4)

     Check: negative/imaginary core charge=   -0.000006    0.000000

     The potential is recalculated from file :
     ./tmp/7/_ph0/alas.save/charge-density.dat

     Starting wfc are    8 atomic wfcs

     Band Structure Calculation
     Davidson diagonalization with overlap

     ethr =  1.25E-10,  avg # of iterations = 10.3

     total cpu time spent up to now is        0.2 secs

     End of band structure calculation

          k = 0.2500 0.2500 0.2500 (   311 PWs)   bands (ev):

    -6.4109   1.6676   4.7023   4.7023

          k = 0.2500-0.7500 0.2500 (   311 PWs)   bands (ev):

    -5.2348  -0.0673   2.2816   3.4865

          k = 0.2500 0.2500 0.7500 (   311 PWs)   bands (ev):

    -5.2348  -0.0673   2.2816   3.4865

          k = 0.2500-0.7500 0.7500 (   311 PWs)   bands (ev):

    -5.2348  -0.0673   2.2816   3.4865

          k = 0.2500-0.7500-0.2500 (   311 PWs)   bands (ev):

    -5.2348  -0.0673   2.2816   3.4865

          k = 0.2500-1.7500-0.2500 (   311 PWs)   bands (ev):

    -6.4109   1.6676   4.7023   4.7023

     highest occupied level (ev):     4.7023

     Writing output data file alas.save

                                                                                

     bravais-lattice index     =            2
     lattice parameter (alat)  =      10.5000  a.u.
     unit-cell volume          =     289.4062 (a.u.)^3
     number of atoms/cell      =            2
     number of atomic types    =            2
     kinetic-energy cut-off    =      16.0000  Ry
     charge density cut-off    =      64.0000  Ry
     convergence threshold     =      1.0E-12
     beta                      =       0.7000
     number of iterations used =            4
     Exchange-correlation      = LDA ( 1  1  0  0 0 0)


     celldm(1)=   10.50000  celldm(2)=    0.00000  celldm(3)=    0.00000
     celldm(4)=    0.00000  celldm(5)=    0.00000  celldm(6)=    0.00000

     crystal axes: (cart. coord. in units of alat)
               a(1) = ( -0.5000  0.0000  0.5000 )  
               a(2) = (  0.0000  0.5000  0.5000 )  
               a(3) = ( -0.5000  0.5000  0.0000 )  

     reciprocal axes: (cart. coord. in units 2 pi/alat)
               b(1) = ( -1.0000 -1.0000  1.0000 )  
               b(2) = (  1.0000  1.0000  1.0000 )  
               b(3) = ( -1.0000  1.0000 -1.0000 )  


     Atoms inside the unit cell: 

     Cartesian axes

     site n.  atom      mass           positions (alat units)
        1     Al  26.9800   tau(    1) = (    0.00000    0.00000    0.00000  )
        2     As  74.9200   tau(    2) = (    0.25000    0.25000    0.25000  )

     Computing dynamical matrix for 
                    q = (   0.0000000  -1.0000000   0.0000000 )
 
      9 Sym.Ops. (with q -> -q+G )


     G cutoff =  178.7306  (    123 G-vectors)     FFT grid: ( 20, 20, 20)
     number of k points=     6

     PseudoPot. # 1 for Al read from file:
     /home/cgduan/fyw/vaspwork/BaPd2As2/I4mmm/pwscf-pbe/lambda/example/Al.pz-n-rrkjus_psl.1.0.0.UPF
     MD5 check sum: f5695b695079f854d95bbc9af2522990
     Pseudo is Ultrasoft + core correction, Zval =  3.0
     Generated using "atomic" code by A. Dal Corso  v.5.4.0
     Using radial grid of 1135 points,  6 beta functions with: 
                l(1) =   0
                l(2) =   0
                l(3) =   1
                l(4) =   1
                l(5) =   2
                l(6) =   2
     Q(r) pseudized with 0 coefficients 


     PseudoPot. # 2 for As read from file:
     /home/cgduan/fyw/vaspwork/BaPd2As2/I4mmm/pwscf-pbe/lambda/example/As.pz-n-rrkjus_psl.1.0.0.UPF
     MD5 check sum: c8743154813d3906a91a0b6d88773858
     Pseudo is Ultrasoft + core correction, Zval =  5.0
     Generated using "atomic" code by A. Dal Corso  v.5.4.0
     Using radial grid of 1209 points,  4 beta functions with: 
                l(1) =   0
                l(2) =   0
                l(3) =   1
                l(4) =   1
     Q(r) pseudized with 0 coefficients 


     Mode symmetry, D_2d (-42m) point group:


     Atomic displacements:
     There are   4 irreducible representations

     Representation     1      1 modes -A_1  X_1  W_1  To be done

     Representation     2      1 modes -B_2  X_3  W_2  To be done

     Representation     3      2 modes -E    X_5  W_3  To be done

     Representation     4      2 modes -E    X_5  W_3  To be done



     Alpha used in Ewald sum =   0.7000
     PHONON       :     1.11s CPU         3.90s WALL



     Representation #  1 mode #   1

     Self-consistent Calculation

      iter #   1 total cpu time :     4.7 secs   av.it.:   6.3
      thresh= 1.000E-02 alpha_mix =  0.700 |ddv_scf|^2 =  1.379E-04

      iter #   2 total cpu time :     5.1 secs   av.it.:   8.7
      thresh= 1.174E-03 alpha_mix =  0.700 |ddv_scf|^2 =  2.225E-04

      iter #   3 total cpu time :     5.2 secs   av.it.:   7.7
      thresh= 1.492E-03 alpha_mix =  0.700 |ddv_scf|^2 =  3.796E-08

      iter #   4 total cpu time :     5.3 secs   av.it.:   8.7
      thresh= 1.948E-05 alpha_mix =  0.700 |ddv_scf|^2 =  7.440E-10

      iter #   5 total cpu time :     5.3 secs   av.it.:   8.3
      thresh= 2.728E-06 alpha_mix =  0.700 |ddv_scf|^2 =  1.426E-11

      iter #   6 total cpu time :     5.4 secs   av.it.:   8.3
      thresh= 3.776E-07 alpha_mix =  0.700 |ddv_scf|^2 =  5.691E-13

     End of self-consistent calculation

     Convergence has been achieved 


     Representation #  2 mode #   2

     Self-consistent Calculation

      iter #   1 total cpu time :     5.6 secs   av.it.:   5.3
      thresh= 1.000E-02 alpha_mix =  0.700 |ddv_scf|^2 =  1.326E-05

      iter #   2 total cpu time :     5.7 secs   av.it.:   8.7
      thresh= 3.641E-04 alpha_mix =  0.700 |ddv_scf|^2 =  8.697E-06

      iter #   3 total cpu time :     5.8 secs   av.it.:   8.3
      thresh= 2.949E-04 alpha_mix =  0.700 |ddv_scf|^2 =  1.692E-08

      iter #   4 total cpu time :     5.9 secs   av.it.:   8.7
      thresh= 1.301E-05 alpha_mix =  0.700 |ddv_scf|^2 =  7.236E-10

      iter #   5 total cpu time :     6.0 secs   av.it.:   8.7
      thresh= 2.690E-06 alpha_mix =  0.700 |ddv_scf|^2 =  1.636E-12

      iter #   6 total cpu time :     6.1 secs   av.it.:   8.7
      thresh= 1.279E-07 alpha_mix =  0.700 |ddv_scf|^2 =  2.353E-14

     End of self-consistent calculation

     Convergence has been achieved 


     Representation #  3 modes #   3  4

     Self-consistent Calculation

      iter #   1 total cpu time :     7.0 secs   av.it.:   6.0
      thresh= 1.000E-02 alpha_mix =  0.700 |ddv_scf|^2 =  2.627E-06

      iter #   2 total cpu time :     7.1 secs   av.it.:   9.8
      thresh= 1.621E-04 alpha_mix =  0.700 |ddv_scf|^2 =  4.723E-07

      iter #   3 total cpu time :     7.2 secs   av.it.:   9.2
      thresh= 6.872E-05 alpha_mix =  0.700 |ddv_scf|^2 =  4.478E-09

      iter #   4 total cpu time :     7.4 secs   av.it.:   9.3
      thresh= 6.692E-06 alpha_mix =  0.700 |ddv_scf|^2 =  3.733E-11

      iter #   5 total cpu time :     7.5 secs   av.it.:   9.5
      thresh= 6.110E-07 alpha_mix =  0.700 |ddv_scf|^2 =  2.063E-13

     End of self-consistent calculation

     Convergence has been achieved 


     Representation #  4 modes #   5  6

     Self-consistent Calculation

      iter #   1 total cpu time :     8.2 secs   av.it.:   5.0
      thresh= 1.000E-02 alpha_mix =  0.700 |ddv_scf|^2 =  4.426E-07

      iter #   2 total cpu time :     8.3 secs   av.it.:   9.5
      thresh= 6.653E-05 alpha_mix =  0.700 |ddv_scf|^2 =  9.231E-08

      iter #   3 total cpu time :     8.4 secs   av.it.:   9.3
      thresh= 3.038E-05 alpha_mix =  0.700 |ddv_scf|^2 =  8.644E-10

      iter #   4 total cpu time :     8.5 secs   av.it.:   9.3
      thresh= 2.940E-06 alpha_mix =  0.700 |ddv_scf|^2 =  8.308E-13

     End of self-consistent calculation

     Convergence has been achieved 
 
     Number of q in the star =    3
     List of q in the star:
          1   0.000000000  -1.000000000   0.000000000
          2   0.000000000   0.000000000  -1.000000000
          3  -1.000000000   0.000000000   0.000000000

     Diagonalizing the dynamical matrix

     q = (    0.000000000  -1.000000000   0.000000000 ) 

 **************************************************************************
     freq (    1) =       2.673538 [THz] =      89.179621 [cm-1]
     freq (    2) =       2.673538 [THz] =      89.179621 [cm-1]
     freq (    3) =       6.615238 [THz] =     220.660573 [cm-1]
     freq (    4) =      10.597662 [THz] =     353.499940 [cm-1]
     freq (    5) =      10.597662 [THz] =     353.499940 [cm-1]
     freq (    6) =      12.262932 [THz] =     409.047396 [cm-1]
 **************************************************************************

     Mode symmetry, D_2d (-42m) point group:

     freq (  1 -  2) =         89.2  [cm-1]   --> E    X_5  W_3      
     freq (  3 -  3) =        220.7  [cm-1]   --> A_1  X_1  W_1      
     freq (  4 -  5) =        353.5  [cm-1]   --> E    X_5  W_3      
     freq (  6 -  6) =        409.0  [cm-1]   --> B_2  X_3  W_2      
 
     init_run     :      0.04s CPU      0.18s WALL (       1 calls)
     electrons    :      0.03s CPU      0.04s WALL (       1 calls)

     Called by init_run:
     wfcinit      :      0.00s CPU      0.14s WALL (       1 calls)
     potinit      :      0.00s CPU      0.00s WALL (       1 calls)

     Called by electrons:
     c_bands      :      0.03s CPU      0.04s WALL (       1 calls)
     v_of_rho     :      0.00s CPU      0.00s WALL (       2 calls)
     newd         :      0.00s CPU      0.00s WALL (       2 calls)

     Called by c_bands:
     init_us_2    :      0.00s CPU      0.00s WALL (      93 calls)
     cegterg      :      0.03s CPU      0.03s WALL (       6 calls)

     Called by sum_band:

     Called by *egterg:
     h_psi        :      0.02s CPU      0.03s WALL (      74 calls)
     s_psi        :      0.01s CPU      0.01s WALL (    1880 calls)
     g_psi        :      0.00s CPU      0.00s WALL (      62 calls)
     cdiaghg      :      0.01s CPU      0.01s WALL (      68 calls)

     Called by h_psi:
     add_vuspsi   :      0.01s CPU      0.01s WALL (     932 calls)

     General routines
     calbec       :      0.04s CPU      0.05s WALL (    2102 calls)
     fft          :      0.01s CPU      0.10s WALL (     241 calls)
     ffts         :      0.12s CPU      0.17s WALL (      48 calls)
     fftw         :      0.25s CPU      0.27s WALL (    8402 calls)
     davcio       :      0.00s CPU      0.02s WALL (     598 calls)
 
     Parallel routines
     fft_scatter  :      0.28s CPU      0.36s WALL (    8691 calls)
 
     PHONON       :     3.35s CPU         9.38s WALL

     INITIALIZATION: 
     phq_setup    :      0.00s CPU      0.02s WALL (       1 calls)
     phq_init     :      0.03s CPU      0.05s WALL (       1 calls)
 
     phq_init     :      0.03s CPU      0.05s WALL (       1 calls)
     set_drhoc    :      0.01s CPU      0.01s WALL (       3 calls)
     init_vloc    :      0.00s CPU      0.00s WALL (       2 calls)
     init_us_1    :      0.08s CPU      0.12s WALL (       2 calls)
     newd         :      0.00s CPU      0.00s WALL (       2 calls)
     dvanqq       :      0.00s CPU      0.00s WALL (       1 calls)
     drho         :      0.01s CPU      0.01s WALL (       1 calls)
 
     DYNAMICAL MATRIX:
     dynmat0      :      0.01s CPU      0.02s WALL (       1 calls)
     phqscf       :      2.18s CPU      5.13s WALL (       1 calls)
     dynmatrix    :      0.05s CPU      0.07s WALL (       1 calls)
 
     phqscf       :      2.18s CPU      5.13s WALL (       1 calls)
     solve_linter :      2.17s CPU      4.91s WALL (       4 calls)
     drhodv       :      0.00s CPU      0.01s WALL (       4 calls)
 
     dynmat0      :      0.01s CPU      0.02s WALL (       1 calls)
     dynmat_us    :      0.00s CPU      0.00s WALL (       1 calls)
     d2ionq       :      0.00s CPU      0.00s WALL (       1 calls)
     dynmatcc     :      0.01s CPU      0.01s WALL (       1 calls)
 
     dynmat_us    :      0.00s CPU      0.00s WALL (       1 calls)
     addusdynmat  :      0.00s CPU      0.00s WALL (       1 calls)
 
     phqscf       :      2.18s CPU      5.13s WALL (       1 calls)
     solve_linter :      2.17s CPU      4.91s WALL (       4 calls)
 
     solve_linter :      2.17s CPU      4.91s WALL (       4 calls)
     dvqpsi_us    :      0.13s CPU      0.17s WALL (      18 calls)
     ortho        :      0.00s CPU      0.01s WALL (      90 calls)
     cgsolve      :      0.29s CPU      0.35s WALL (      90 calls)
     incdrhoscf   :      0.03s CPU      0.03s WALL (      90 calls)
     addusddens   :      0.02s CPU      0.02s WALL (      25 calls)
     vpsifft      :      0.02s CPU      0.02s WALL (      72 calls)
     dv_of_drho   :      0.00s CPU      0.00s WALL (      30 calls)
     mix_pot      :      0.06s CPU      0.96s WALL (      21 calls)
     psymdvscf    :      0.08s CPU      0.09s WALL (      21 calls)
     newdq        :      0.03s CPU      0.03s WALL (      21 calls)
     adddvscf     :      0.00s CPU      0.00s WALL (      72 calls)
     drhodvus     :      0.00s CPU      0.00s WALL (       4 calls)
 
     dvqpsi_us    :      0.13s CPU      0.17s WALL (      18 calls)
     dvqpsi_us_on :      0.01s CPU      0.00s WALL (      18 calls)
 
     cgsolve      :      0.29s CPU      0.35s WALL (      90 calls)
     ch_psi       :      0.27s CPU      0.32s WALL (     858 calls)
 
     ch_psi       :      0.27s CPU      0.32s WALL (     858 calls)
     h_psiq       :      0.23s CPU      0.27s WALL (     858 calls)
     last         :      0.03s CPU      0.05s WALL (     858 calls)
 
     h_psiq       :      0.23s CPU      0.27s WALL (     858 calls)
     firstfft     :      0.09s CPU      0.11s WALL (    3135 calls)
     secondfft    :      0.10s CPU      0.11s WALL (    3135 calls)
     add_vuspsi   :      0.01s CPU      0.01s WALL (     932 calls)
 
     incdrhoscf   :      0.03s CPU      0.03s WALL (      90 calls)
     addusdbec    :      0.01s CPU      0.00s WALL (     108 calls)
 
     drhodvus     :      0.00s CPU      0.00s WALL (       4 calls)
 
      General routines
     calbec       :      0.04s CPU      0.05s WALL (    2102 calls)
     fft          :      0.01s CPU      0.10s WALL (     241 calls)
     ffts         :      0.12s CPU      0.17s WALL (      48 calls)
     fftw         :      0.25s CPU      0.27s WALL (    8402 calls)
     davcio       :      0.00s CPU      0.02s WALL (     598 calls)
     write_rec    :      0.02s CPU      1.44s WALL (      25 calls)
 
 
     PHONON       :     3.35s CPU         9.38s WALL

 
   This run was terminated on:  15:15: 0  23Jan2018            

=------------------------------------------------------------------------------=
   JOB DONE.
=------------------------------------------------------------------------------=
