
     Program PHONON v.5.4.0 starts on 23Jan2018 at 15:15: 2 

     This program is part of the open-source Quantum ESPRESSO suite
     for quantum simulation of materials; please cite
         "P. Giannozzi et al., J. Phys.:Condens. Matter 21 395502 (2009);
          URL http://www.quantum-espresso.org", 
     in publications or presentations arising from this work. More details at
     http://www.quantum-espresso.org/quote

     Parallel version (MPI), running on    20 processors
     R & G space division:  proc/nbgrp/npool/nimage =      20

     Reading data from directory:
     ./tmp/8/alas.save

   Info: using nr1, nr2, nr3 values from input

   Info: using nr1, nr2, nr3 values from input

     IMPORTANT: XC functional enforced from input :
     Exchange-correlation      = LDA ( 1  1  0  0 0 0)
     Any further DFT definition will be discarded
     Please, verify this is what you really want

 
     Parallelization info
     --------------------
     sticks:   dense  smooth     PW     G-vecs:    dense   smooth      PW
     Min          12      12      4                  122      122      22
     Max          13      13      5                  125      125      24
     Sum         241     241     85                 2445     2445     459
 

     Check: negative/imaginary core charge=   -0.000006    0.000000


     Dynamical matrices for ( 4, 4, 4)  uniform grid of q-points
     (   8q-points):
       N         xq(1)         xq(2)         xq(3) 
       1   0.000000000   0.000000000   0.000000000
       2  -0.250000000   0.250000000  -0.250000000
       3   0.500000000  -0.500000000   0.500000000
       4   0.000000000   0.500000000   0.000000000
       5   0.750000000  -0.250000000   0.750000000
       6   0.500000000   0.000000000   0.500000000
       7   0.000000000  -1.000000000   0.000000000
       8  -0.500000000  -1.000000000   0.000000000

     Calculation of q =   -0.5000000  -1.0000000   0.0000000
 
     Parallelization info
     --------------------
     sticks:   dense  smooth     PW     G-vecs:    dense   smooth      PW
     Min          12      12      4                  122      122      29
     Max          13      13      5                  125      125      33
     Sum         241     241     91                 2445     2445     609
 
     Message from routine sym_rho_init:
     likely internal error: no G-vectors found


     bravais-lattice index     =            2
     lattice parameter (alat)  =      10.5000  a.u.
     unit-cell volume          =     289.4062 (a.u.)^3
     number of atoms/cell      =            2
     number of atomic types    =            2
     number of electrons       =         8.00
     number of Kohn-Sham states=            4
     kinetic-energy cutoff     =      16.0000  Ry
     charge density cutoff     =      64.0000  Ry
     Exchange-correlation      = LDA ( 1  1  0  0 0 0)

     celldm(1)=  10.500000  celldm(2)=   0.000000  celldm(3)=   0.000000
     celldm(4)=   0.000000  celldm(5)=   0.000000  celldm(6)=   0.000000

     crystal axes: (cart. coord. in units of alat)
               a(1) = (  -0.500000   0.000000   0.500000 )  
               a(2) = (   0.000000   0.500000   0.500000 )  
               a(3) = (  -0.500000   0.500000   0.000000 )  

     reciprocal axes: (cart. coord. in units 2 pi/alat)
               b(1) = ( -1.000000 -1.000000  1.000000 )  
               b(2) = (  1.000000  1.000000  1.000000 )  
               b(3) = ( -1.000000  1.000000 -1.000000 )  


     PseudoPot. # 1 for Al read from file:
     /home/cgduan/fyw/vaspwork/BaPd2As2/I4mmm/pwscf-pbe/lambda/example/Al.pz-n-rrkjus_psl.1.0.0.UPF
     MD5 check sum: f5695b695079f854d95bbc9af2522990
     Pseudo is Ultrasoft + core correction, Zval =  3.0
     Generated using "atomic" code by A. Dal Corso  v.5.4.0
     Using radial grid of 1135 points,  6 beta functions with: 
                l(1) =   0
                l(2) =   0
                l(3) =   1
                l(4) =   1
                l(5) =   2
                l(6) =   2
     Q(r) pseudized with 0 coefficients 


     PseudoPot. # 2 for As read from file:
     /home/cgduan/fyw/vaspwork/BaPd2As2/I4mmm/pwscf-pbe/lambda/example/As.pz-n-rrkjus_psl.1.0.0.UPF
     MD5 check sum: c8743154813d3906a91a0b6d88773858
     Pseudo is Ultrasoft + core correction, Zval =  5.0
     Generated using "atomic" code by A. Dal Corso  v.5.4.0
     Using radial grid of 1209 points,  4 beta functions with: 
                l(1) =   0
                l(2) =   0
                l(3) =   1
                l(4) =   1
     Q(r) pseudized with 0 coefficients 


     atomic species   valence    mass     pseudopotential
        Al             3.00    26.98000     Al( 1.00)
        As             5.00    74.92000     As( 1.00)

     24 Sym. Ops. (no inversion) found



   Cartesian axes

     site n.     atom                  positions (alat units)
         1           Al  tau(   1) = (   0.0000000   0.0000000   0.0000000  )
         2           As  tau(   2) = (   0.2500000   0.2500000   0.2500000  )

     number of k points=    16
                       cart. coord. in units 2pi/alat
        k(    1) = (   0.2500000   0.2500000   0.2500000), wk =   0.2500000
        k(    2) = (  -0.2500000  -0.7500000   0.2500000), wk =   0.0000000
        k(    3) = (   0.2500000   0.2500000   0.7500000), wk =   0.2500000
        k(    4) = (  -0.2500000  -0.7500000   0.7500000), wk =   0.0000000
        k(    5) = (  -0.2500000  -0.2500000  -0.2500000), wk =   0.2500000
        k(    6) = (  -0.7500000  -1.2500000  -0.2500000), wk =   0.0000000
        k(    7) = (  -0.2500000  -0.2500000   0.7500000), wk =   0.2500000
        k(    8) = (  -0.7500000  -1.2500000   0.7500000), wk =   0.0000000
        k(    9) = (   0.7500000   0.2500000   0.2500000), wk =   0.2500000
        k(   10) = (   0.2500000  -0.7500000   0.2500000), wk =   0.0000000
        k(   11) = (  -0.2500000  -0.2500000  -0.7500000), wk =   0.2500000
        k(   12) = (  -0.7500000  -1.2500000  -0.7500000), wk =   0.0000000
        k(   13) = (   0.2500000   0.2500000  -0.7500000), wk =   0.2500000
        k(   14) = (  -0.2500000  -0.7500000  -0.7500000), wk =   0.0000000
        k(   15) = (   0.7500000  -0.2500000   0.2500000), wk =   0.2500000
        k(   16) = (   0.2500000  -1.2500000   0.2500000), wk =   0.0000000

     Dense  grid:     2445 G-vectors     FFT dimensions: (  20,  20,  20)

     Largest allocated arrays     est. size (Mb)     dimensions
        Kohn-Sham Wavefunctions         0.00 Mb     (      18,    4)
        NL pseudopotentials             0.01 Mb     (      18,   26)
        Each V/rho on FFT grid          0.01 Mb     (     400)
        Each G-vector array             0.00 Mb     (     123)
        G-vector shells                 0.00 Mb     (      46)
     Largest temporary arrays     est. size (Mb)     dimensions
        Auxiliary wavefunctions         0.00 Mb     (      18,   16)
        Each subspace H/S matrix        0.00 Mb     (       5,    5)
        Each <psi_i|beta_j> matrix      0.00 Mb     (      26,    4)

     Check: negative/imaginary core charge=   -0.000006    0.000000

     The potential is recalculated from file :
     ./tmp/8/_ph0/alas.save/charge-density.dat

     Starting wfc are    8 atomic wfcs

     Band Structure Calculation
     Davidson diagonalization with overlap

     ethr =  1.25E-10,  avg # of iterations = 10.2

     total cpu time spent up to now is        0.2 secs

     End of band structure calculation

          k = 0.2500 0.2500 0.2500 (   311 PWs)   bands (ev):

    -6.4109   1.6676   4.7023   4.7023

          k =-0.2500-0.7500 0.2500 (   311 PWs)   bands (ev):

    -5.2348  -0.0673   2.2816   3.4865

          k = 0.2500 0.2500 0.7500 (   311 PWs)   bands (ev):

    -5.2348  -0.0673   2.2816   3.4865

          k =-0.2500-0.7500 0.7500 (   311 PWs)   bands (ev):

    -5.2348  -0.0673   2.2816   3.4865

          k =-0.2500-0.2500-0.2500 (   311 PWs)   bands (ev):

    -6.4109   1.6676   4.7023   4.7023

          k =-0.7500-1.2500-0.2500 (   311 PWs)   bands (ev):

    -5.2348  -0.0673   2.2816   3.4865

          k =-0.2500-0.2500 0.7500 (   311 PWs)   bands (ev):

    -5.2348  -0.0673   2.2816   3.4865

          k =-0.7500-1.2500 0.7500 (   311 PWs)   bands (ev):

    -6.4109   1.6676   4.7023   4.7023

          k = 0.7500 0.2500 0.2500 (   311 PWs)   bands (ev):

    -5.2348  -0.0673   2.2816   3.4865

          k = 0.2500-0.7500 0.2500 (   311 PWs)   bands (ev):

    -5.2348  -0.0673   2.2816   3.4865

          k =-0.2500-0.2500-0.7500 (   311 PWs)   bands (ev):

    -5.2348  -0.0673   2.2816   3.4865

          k =-0.7500-1.2500-0.7500 (   311 PWs)   bands (ev):

    -6.4109   1.6676   4.7023   4.7023

          k = 0.2500 0.2500-0.7500 (   311 PWs)   bands (ev):

    -5.2348  -0.0673   2.2816   3.4865

          k =-0.2500-0.7500-0.7500 (   311 PWs)   bands (ev):

    -5.2348  -0.0673   2.2816   3.4865

          k = 0.7500-0.2500 0.2500 (   311 PWs)   bands (ev):

    -5.2348  -0.0673   2.2816   3.4865

          k = 0.2500-1.2500 0.2500 (   311 PWs)   bands (ev):

    -5.2348  -0.0673   2.2816   3.4865

     highest occupied level (ev):     4.7023

     Writing output data file alas.save

                                                                                

     bravais-lattice index     =            2
     lattice parameter (alat)  =      10.5000  a.u.
     unit-cell volume          =     289.4062 (a.u.)^3
     number of atoms/cell      =            2
     number of atomic types    =            2
     kinetic-energy cut-off    =      16.0000  Ry
     charge density cut-off    =      64.0000  Ry
     convergence threshold     =      1.0E-12
     beta                      =       0.7000
     number of iterations used =            4
     Exchange-correlation      = LDA ( 1  1  0  0 0 0)


     celldm(1)=   10.50000  celldm(2)=    0.00000  celldm(3)=    0.00000
     celldm(4)=    0.00000  celldm(5)=    0.00000  celldm(6)=    0.00000

     crystal axes: (cart. coord. in units of alat)
               a(1) = ( -0.5000  0.0000  0.5000 )  
               a(2) = (  0.0000  0.5000  0.5000 )  
               a(3) = ( -0.5000  0.5000  0.0000 )  

     reciprocal axes: (cart. coord. in units 2 pi/alat)
               b(1) = ( -1.0000 -1.0000  1.0000 )  
               b(2) = (  1.0000  1.0000  1.0000 )  
               b(3) = ( -1.0000  1.0000 -1.0000 )  


     Atoms inside the unit cell: 

     Cartesian axes

     site n.  atom      mass           positions (alat units)
        1     Al  26.9800   tau(    1) = (    0.00000    0.00000    0.00000  )
        2     As  74.9200   tau(    2) = (    0.25000    0.25000    0.25000  )

     Computing dynamical matrix for 
                    q = (  -0.5000000  -1.0000000   0.0000000 )
 
      4 Sym.Ops. (no q -> -q+G )


     G cutoff =  178.7306  (    123 G-vectors)     FFT grid: ( 20, 20, 20)
     number of k points=    16

     PseudoPot. # 1 for Al read from file:
     /home/cgduan/fyw/vaspwork/BaPd2As2/I4mmm/pwscf-pbe/lambda/example/Al.pz-n-rrkjus_psl.1.0.0.UPF
     MD5 check sum: f5695b695079f854d95bbc9af2522990
     Pseudo is Ultrasoft + core correction, Zval =  3.0
     Generated using "atomic" code by A. Dal Corso  v.5.4.0
     Using radial grid of 1135 points,  6 beta functions with: 
                l(1) =   0
                l(2) =   0
                l(3) =   1
                l(4) =   1
                l(5) =   2
                l(6) =   2
     Q(r) pseudized with 0 coefficients 


     PseudoPot. # 2 for As read from file:
     /home/cgduan/fyw/vaspwork/BaPd2As2/I4mmm/pwscf-pbe/lambda/example/As.pz-n-rrkjus_psl.1.0.0.UPF
     MD5 check sum: c8743154813d3906a91a0b6d88773858
     Pseudo is Ultrasoft + core correction, Zval =  5.0
     Generated using "atomic" code by A. Dal Corso  v.5.4.0
     Using radial grid of 1209 points,  4 beta functions with: 
                l(1) =   0
                l(2) =   0
                l(3) =   1
                l(4) =   1
     Q(r) pseudized with 0 coefficients 


     Mode symmetry, S_4 (-4)    point group:


     Atomic displacements:
     There are   6 irreducible representations

     Representation     1      1 modes -A    W_1  To be done

     Representation     2      1 modes -B    W_3  To be done

     Representation     3      1 modes -B    W_3  To be done

     Representation     4      1 modes -E    W_4  To be done

     Representation     5      1 modes -E*   W_2  To be done

     Representation     6      1 modes -E*   W_2  To be done



     Alpha used in Ewald sum =   0.7000
     PHONON       :     1.26s CPU         3.51s WALL



     Representation #  1 mode #   1

     Self-consistent Calculation

      iter #   1 total cpu time :     4.0 secs   av.it.:   6.1
      thresh= 1.000E-02 alpha_mix =  0.700 |ddv_scf|^2 =  6.301E-05

      iter #   2 total cpu time :     4.2 secs   av.it.:   9.0
      thresh= 7.938E-04 alpha_mix =  0.700 |ddv_scf|^2 =  6.918E-05

      iter #   3 total cpu time :     4.3 secs   av.it.:   8.2
      thresh= 8.318E-04 alpha_mix =  0.700 |ddv_scf|^2 =  2.388E-08

      iter #   4 total cpu time :     4.5 secs   av.it.:   9.1
      thresh= 1.545E-05 alpha_mix =  0.700 |ddv_scf|^2 =  3.710E-10

      iter #   5 total cpu time :     4.7 secs   av.it.:   9.0
      thresh= 1.926E-06 alpha_mix =  0.700 |ddv_scf|^2 =  6.371E-12

      iter #   6 total cpu time :     4.8 secs   av.it.:   8.6
      thresh= 2.524E-07 alpha_mix =  0.700 |ddv_scf|^2 =  1.256E-13

     End of self-consistent calculation

     Convergence has been achieved 


     Representation #  2 mode #   2

     Self-consistent Calculation

      iter #   1 total cpu time :     5.1 secs   av.it.:   6.0
      thresh= 1.000E-02 alpha_mix =  0.700 |ddv_scf|^2 =  3.994E-05

      iter #   2 total cpu time :     5.1 secs   av.it.:   9.2
      thresh= 6.320E-04 alpha_mix =  0.700 |ddv_scf|^2 =  2.168E-05

      iter #   3 total cpu time :     5.3 secs   av.it.:   8.5
      thresh= 4.656E-04 alpha_mix =  0.700 |ddv_scf|^2 =  3.370E-08

      iter #   4 total cpu time :     5.4 secs   av.it.:   9.0
      thresh= 1.836E-05 alpha_mix =  0.700 |ddv_scf|^2 =  4.631E-10

      iter #   5 total cpu time :     5.5 secs   av.it.:   8.8
      thresh= 2.152E-06 alpha_mix =  0.700 |ddv_scf|^2 =  2.305E-12

      iter #   6 total cpu time :     5.6 secs   av.it.:   9.0
      thresh= 1.518E-07 alpha_mix =  0.700 |ddv_scf|^2 =  1.300E-14

     End of self-consistent calculation

     Convergence has been achieved 


     Representation #  3 mode #   3

     Self-consistent Calculation

      iter #   1 total cpu time :     6.0 secs   av.it.:   5.0
      thresh= 1.000E-02 alpha_mix =  0.700 |ddv_scf|^2 =  4.842E-06

      iter #   2 total cpu time :     6.1 secs   av.it.:   9.0
      thresh= 2.201E-04 alpha_mix =  0.700 |ddv_scf|^2 =  2.838E-06

      iter #   3 total cpu time :     6.2 secs   av.it.:   8.5
      thresh= 1.685E-04 alpha_mix =  0.700 |ddv_scf|^2 =  4.818E-09

      iter #   4 total cpu time :     6.3 secs   av.it.:   8.2
      thresh= 6.941E-06 alpha_mix =  0.700 |ddv_scf|^2 =  1.194E-11

      iter #   5 total cpu time :     6.5 secs   av.it.:   9.0
      thresh= 3.455E-07 alpha_mix =  0.700 |ddv_scf|^2 =  2.055E-13

     End of self-consistent calculation

     Convergence has been achieved 


     Representation #  4 mode #   4

     Self-consistent Calculation

      iter #   1 total cpu time :     7.4 secs   av.it.:   5.1
      thresh= 1.000E-02 alpha_mix =  0.700 |ddv_scf|^2 =  9.034E-06

      iter #   2 total cpu time :     8.2 secs   av.it.:   9.0
      thresh= 3.006E-04 alpha_mix =  0.700 |ddv_scf|^2 =  7.418E-06

      iter #   3 total cpu time :     8.3 secs   av.it.:   8.2
      thresh= 2.724E-04 alpha_mix =  0.700 |ddv_scf|^2 =  6.305E-09

      iter #   4 total cpu time :     8.4 secs   av.it.:   8.2
      thresh= 7.940E-06 alpha_mix =  0.700 |ddv_scf|^2 =  1.056E-10

      iter #   5 total cpu time :     8.4 secs   av.it.:   8.5
      thresh= 1.027E-06 alpha_mix =  0.700 |ddv_scf|^2 =  4.291E-13

     End of self-consistent calculation

     Convergence has been achieved 


     Representation #  5 mode #   5

     Self-consistent Calculation

      iter #   1 total cpu time :     8.9 secs   av.it.:   5.1
      thresh= 1.000E-02 alpha_mix =  0.700 |ddv_scf|^2 =  6.320E-06

      iter #   2 total cpu time :     8.9 secs   av.it.:   9.1
      thresh= 2.514E-04 alpha_mix =  0.700 |ddv_scf|^2 =  2.587E-06

      iter #   3 total cpu time :     9.0 secs   av.it.:   8.5
      thresh= 1.609E-04 alpha_mix =  0.700 |ddv_scf|^2 =  5.619E-09

      iter #   4 total cpu time :     9.2 secs   av.it.:   8.2
      thresh= 7.496E-06 alpha_mix =  0.700 |ddv_scf|^2 =  9.982E-12

      iter #   5 total cpu time :     9.4 secs   av.it.:   9.1
      thresh= 3.159E-07 alpha_mix =  0.700 |ddv_scf|^2 =  1.707E-13

     End of self-consistent calculation

     Convergence has been achieved 


     Representation #  6 mode #   6

     Self-consistent Calculation

      iter #   1 total cpu time :     9.6 secs   av.it.:   6.1
      thresh= 1.000E-02 alpha_mix =  0.700 |ddv_scf|^2 =  2.228E-05

      iter #   2 total cpu time :     9.7 secs   av.it.:   9.1
      thresh= 4.721E-04 alpha_mix =  0.700 |ddv_scf|^2 =  9.281E-06

      iter #   3 total cpu time :     9.8 secs   av.it.:   8.5
      thresh= 3.046E-04 alpha_mix =  0.700 |ddv_scf|^2 =  1.860E-08

      iter #   4 total cpu time :     9.9 secs   av.it.:   9.2
      thresh= 1.364E-05 alpha_mix =  0.700 |ddv_scf|^2 =  2.518E-10

      iter #   5 total cpu time :    10.2 secs   av.it.:   9.0
      thresh= 1.587E-06 alpha_mix =  0.700 |ddv_scf|^2 =  2.654E-12

      iter #   6 total cpu time :    10.9 secs   av.it.:   9.0
      thresh= 1.629E-07 alpha_mix =  0.700 |ddv_scf|^2 =  2.711E-14

     End of self-consistent calculation

     Convergence has been achieved 
 
     Number of q in the star =    6
     List of q in the star:
          1  -0.500000000  -1.000000000   0.000000000
          2   0.500000000   1.000000000   0.000000000
          3   0.000000000  -1.000000000  -0.500000000
          4   0.000000000   1.000000000   0.500000000
          5   0.000000000  -0.500000000  -1.000000000
          6   0.000000000   0.500000000   1.000000000

     Diagonalizing the dynamical matrix

     q = (   -0.500000000  -1.000000000   0.000000000 ) 

 **************************************************************************
     freq (    1) =       3.615779 [THz] =     120.609415 [cm-1]
     freq (    2) =       3.900908 [THz] =     130.120295 [cm-1]
     freq (    3) =       6.012490 [THz] =     200.555076 [cm-1]
     freq (    4) =      10.684285 [THz] =     356.389382 [cm-1]
     freq (    5) =      10.705605 [THz] =     357.100557 [cm-1]
     freq (    6) =      10.898897 [THz] =     363.548062 [cm-1]
 **************************************************************************

     Mode symmetry, S_4 (-4)    point group:

     freq (  1 -  1) =        120.6  [cm-1]   --> B    W_3           
     freq (  2 -  2) =        130.1  [cm-1]   --> E*   W_2           
     freq (  3 -  3) =        200.6  [cm-1]   --> A    W_1           
     freq (  4 -  4) =        356.4  [cm-1]   --> B    W_3           
     freq (  5 -  5) =        357.1  [cm-1]   --> E    W_4           
     freq (  6 -  6) =        363.5  [cm-1]   --> E*   W_2           
 
     init_run     :      0.04s CPU      0.06s WALL (       1 calls)
     electrons    :      0.15s CPU      0.18s WALL (       1 calls)

     Called by init_run:
     wfcinit      :      0.00s CPU      0.01s WALL (       1 calls)
     potinit      :      0.00s CPU      0.00s WALL (       1 calls)

     Called by electrons:
     c_bands      :      0.15s CPU      0.18s WALL (       1 calls)
     v_of_rho     :      0.00s CPU      0.00s WALL (       2 calls)
     newd         :      0.00s CPU      0.00s WALL (       2 calls)

     Called by c_bands:
     init_us_2    :      0.01s CPU      0.01s WALL (     360 calls)
     cegterg      :      0.07s CPU      0.08s WALL (      16 calls)

     Called by sum_band:

     Called by *egterg:
     h_psi        :      0.12s CPU      0.14s WALL (     196 calls)
     s_psi        :      0.03s CPU      0.04s WALL (    5408 calls)
     g_psi        :      0.00s CPU      0.00s WALL (     164 calls)
     cdiaghg      :      0.02s CPU      0.02s WALL (     180 calls)

     Called by h_psi:
     add_vuspsi   :      0.02s CPU      0.02s WALL (    2670 calls)

     General routines
     calbec       :      0.09s CPU      0.14s WALL (    6024 calls)
     fft          :      0.07s CPU      0.14s WALL (     259 calls)
     ffts         :      0.12s CPU      0.14s WALL (      90 calls)
     fftw         :      0.73s CPU      0.82s WALL (   24060 calls)
     davcio       :      0.01s CPU      0.03s WALL (    1651 calls)
 
     Parallel routines
     fft_scatter  :      0.69s CPU      0.80s WALL (   24409 calls)
 
     PHONON       :     5.19s CPU        11.25s WALL

     INITIALIZATION: 
     phq_setup    :      0.01s CPU      0.02s WALL (       1 calls)
     phq_init     :      0.04s CPU      0.11s WALL (       1 calls)
 
     phq_init     :      0.04s CPU      0.11s WALL (       1 calls)
     set_drhoc    :      0.01s CPU      0.01s WALL (       3 calls)
     init_vloc    :      0.00s CPU      0.00s WALL (       2 calls)
     init_us_1    :      0.07s CPU      0.35s WALL (       2 calls)
     newd         :      0.00s CPU      0.00s WALL (       2 calls)
     dvanqq       :      0.00s CPU      0.00s WALL (       1 calls)
     drho         :      0.02s CPU      0.02s WALL (       1 calls)
 
     DYNAMICAL MATRIX:
     dynmat0      :      0.01s CPU      0.08s WALL (       1 calls)
     phqscf       :      3.93s CPU      7.63s WALL (       1 calls)
     dynmatrix    :      0.00s CPU      0.02s WALL (       1 calls)
 
     phqscf       :      3.93s CPU      7.63s WALL (       1 calls)
     solve_linter :      3.90s CPU      6.87s WALL (       6 calls)
     drhodv       :      0.01s CPU      0.02s WALL (       6 calls)
 
     dynmat0      :      0.01s CPU      0.08s WALL (       1 calls)
     dynmat_us    :      0.00s CPU      0.00s WALL (       1 calls)
     d2ionq       :      0.00s CPU      0.00s WALL (       1 calls)
     dynmatcc     :      0.01s CPU      0.01s WALL (       1 calls)
 
     dynmat_us    :      0.00s CPU      0.00s WALL (       1 calls)
     addusdynmat  :      0.00s CPU      0.00s WALL (       1 calls)
 
     phqscf       :      3.93s CPU      7.63s WALL (       1 calls)
     solve_linter :      3.90s CPU      6.87s WALL (       6 calls)
 
     solve_linter :      3.90s CPU      6.87s WALL (       6 calls)
     dvqpsi_us    :      0.14s CPU      0.16s WALL (      48 calls)
     ortho        :      0.02s CPU      0.02s WALL (     264 calls)
     cgsolve      :      0.81s CPU      0.99s WALL (     264 calls)
     incdrhoscf   :      0.07s CPU      0.08s WALL (     264 calls)
     addusddens   :      0.03s CPU      0.03s WALL (      39 calls)
     vpsifft      :      0.06s CPU      0.06s WALL (     216 calls)
     dv_of_drho   :      0.00s CPU      0.00s WALL (      33 calls)
     mix_pot      :      0.02s CPU      1.01s WALL (      33 calls)
     psymdvscf    :      0.06s CPU      0.06s WALL (      33 calls)
     newdq        :      0.03s CPU      0.03s WALL (      33 calls)
     adddvscf     :      0.00s CPU      0.00s WALL (     216 calls)
     drhodvus     :      0.00s CPU      0.00s WALL (       6 calls)
 
     dvqpsi_us    :      0.14s CPU      0.16s WALL (      48 calls)
     dvqpsi_us_on :      0.01s CPU      0.01s WALL (      48 calls)
 
     cgsolve      :      0.81s CPU      0.99s WALL (     264 calls)
     ch_psi       :      0.75s CPU      0.89s WALL (    2474 calls)
 
     ch_psi       :      0.75s CPU      0.89s WALL (    2474 calls)
     h_psiq       :      0.64s CPU      0.75s WALL (    2474 calls)
     last         :      0.10s CPU      0.14s WALL (    2474 calls)
 
     h_psiq       :      0.64s CPU      0.75s WALL (    2474 calls)
     firstfft     :      0.23s CPU      0.30s WALL (    8998 calls)
     secondfft    :      0.29s CPU      0.30s WALL (    8998 calls)
     add_vuspsi   :      0.02s CPU      0.02s WALL (    2670 calls)
 
     incdrhoscf   :      0.07s CPU      0.08s WALL (     264 calls)
     addusdbec    :      0.01s CPU      0.01s WALL (     312 calls)
 
     drhodvus     :      0.00s CPU      0.00s WALL (       6 calls)
 
      General routines
     calbec       :      0.09s CPU      0.14s WALL (    6024 calls)
     fft          :      0.07s CPU      0.14s WALL (     259 calls)
     ffts         :      0.12s CPU      0.14s WALL (      90 calls)
     fftw         :      0.73s CPU      0.82s WALL (   24060 calls)
     davcio       :      0.01s CPU      0.03s WALL (    1651 calls)
     write_rec    :      0.04s CPU      1.64s WALL (      39 calls)
 
 
     PHONON       :     5.19s CPU        11.25s WALL

 
   This run was terminated on:  15:15:14  23Jan2018            

=------------------------------------------------------------------------------=
   JOB DONE.
=------------------------------------------------------------------------------=
