
     Program PHONON v.5.4.0 starts on 23Jan2018 at 15:14:16 

     This program is part of the open-source Quantum ESPRESSO suite
     for quantum simulation of materials; please cite
         "P. Giannozzi et al., J. Phys.:Condens. Matter 21 395502 (2009);
          URL http://www.quantum-espresso.org", 
     in publications or presentations arising from this work. More details at
     http://www.quantum-espresso.org/quote

     Parallel version (MPI), running on    20 processors
     R & G space division:  proc/nbgrp/npool/nimage =      20

     Reading data from directory:
     ./tmp/5/alas.save

   Info: using nr1, nr2, nr3 values from input

   Info: using nr1, nr2, nr3 values from input

     IMPORTANT: XC functional enforced from input :
     Exchange-correlation      = LDA ( 1  1  0  0 0 0)
     Any further DFT definition will be discarded
     Please, verify this is what you really want

 
     Parallelization info
     --------------------
     sticks:   dense  smooth     PW     G-vecs:    dense   smooth      PW
     Min          12      12      4                  122      122      22
     Max          13      13      5                  125      125      24
     Sum         241     241     85                 2445     2445     459
 

     Check: negative/imaginary core charge=   -0.000006    0.000000


     Dynamical matrices for ( 4, 4, 4)  uniform grid of q-points
     (   8q-points):
       N         xq(1)         xq(2)         xq(3) 
       1   0.000000000   0.000000000   0.000000000
       2  -0.250000000   0.250000000  -0.250000000
       3   0.500000000  -0.500000000   0.500000000
       4   0.000000000   0.500000000   0.000000000
       5   0.750000000  -0.250000000   0.750000000
       6   0.500000000   0.000000000   0.500000000
       7   0.000000000  -1.000000000   0.000000000
       8  -0.500000000  -1.000000000   0.000000000

     Calculation of q =    0.7500000  -0.2500000   0.7500000
 
     Parallelization info
     --------------------
     sticks:   dense  smooth     PW     G-vecs:    dense   smooth      PW
     Min          12      12      4                  122      122      30
     Max          13      13      5                  125      125      35
     Sum         241     241     97                 2445     2445     645
 
     Message from routine sym_rho_init:
     likely internal error: no G-vectors found


     bravais-lattice index     =            2
     lattice parameter (alat)  =      10.5000  a.u.
     unit-cell volume          =     289.4062 (a.u.)^3
     number of atoms/cell      =            2
     number of atomic types    =            2
     number of electrons       =         8.00
     number of Kohn-Sham states=            4
     kinetic-energy cutoff     =      16.0000  Ry
     charge density cutoff     =      64.0000  Ry
     Exchange-correlation      = LDA ( 1  1  0  0 0 0)

     celldm(1)=  10.500000  celldm(2)=   0.000000  celldm(3)=   0.000000
     celldm(4)=   0.000000  celldm(5)=   0.000000  celldm(6)=   0.000000

     crystal axes: (cart. coord. in units of alat)
               a(1) = (  -0.500000   0.000000   0.500000 )  
               a(2) = (   0.000000   0.500000   0.500000 )  
               a(3) = (  -0.500000   0.500000   0.000000 )  

     reciprocal axes: (cart. coord. in units 2 pi/alat)
               b(1) = ( -1.000000 -1.000000  1.000000 )  
               b(2) = (  1.000000  1.000000  1.000000 )  
               b(3) = ( -1.000000  1.000000 -1.000000 )  


     PseudoPot. # 1 for Al read from file:
     /home/cgduan/fyw/vaspwork/BaPd2As2/I4mmm/pwscf-pbe/lambda/example/Al.pz-n-rrkjus_psl.1.0.0.UPF
     MD5 check sum: f5695b695079f854d95bbc9af2522990
     Pseudo is Ultrasoft + core correction, Zval =  3.0
     Generated using "atomic" code by A. Dal Corso  v.5.4.0
     Using radial grid of 1135 points,  6 beta functions with: 
                l(1) =   0
                l(2) =   0
                l(3) =   1
                l(4) =   1
                l(5) =   2
                l(6) =   2
     Q(r) pseudized with 0 coefficients 


     PseudoPot. # 2 for As read from file:
     /home/cgduan/fyw/vaspwork/BaPd2As2/I4mmm/pwscf-pbe/lambda/example/As.pz-n-rrkjus_psl.1.0.0.UPF
     MD5 check sum: c8743154813d3906a91a0b6d88773858
     Pseudo is Ultrasoft + core correction, Zval =  5.0
     Generated using "atomic" code by A. Dal Corso  v.5.4.0
     Using radial grid of 1209 points,  4 beta functions with: 
                l(1) =   0
                l(2) =   0
                l(3) =   1
                l(4) =   1
     Q(r) pseudized with 0 coefficients 


     atomic species   valence    mass     pseudopotential
        Al             3.00    26.98000     Al( 1.00)
        As             5.00    74.92000     As( 1.00)

     24 Sym. Ops. (no inversion) found



   Cartesian axes

     site n.     atom                  positions (alat units)
         1           Al  tau(   1) = (   0.0000000   0.0000000   0.0000000  )
         2           As  tau(   2) = (   0.2500000   0.2500000   0.2500000  )

     number of k points=    40
                       cart. coord. in units 2pi/alat
        k(    1) = (   0.2500000   0.2500000   0.2500000), wk =   0.0625000
        k(    2) = (   1.0000000   0.0000000   1.0000000), wk =   0.0000000
        k(    3) = (   0.2500000   0.2500000   0.7500000), wk =   0.1250000
        k(    4) = (   1.0000000   0.0000000   1.5000000), wk =   0.0000000
        k(    5) = (  -0.2500000  -0.2500000   0.2500000), wk =   0.1250000
        k(    6) = (   0.5000000  -0.5000000   1.0000000), wk =   0.0000000
        k(    7) = (  -0.2500000   0.2500000  -0.2500000), wk =   0.0625000
        k(    8) = (   0.5000000   0.0000000   0.5000000), wk =   0.0000000
        k(    9) = (  -0.2500000  -0.2500000  -0.2500000), wk =   0.0625000
        k(   10) = (   0.5000000  -0.5000000   0.5000000), wk =   0.0000000
        k(   11) = (   0.2500000   0.2500000  -0.2500000), wk =   0.1250000
        k(   12) = (   1.0000000   0.0000000   0.5000000), wk =   0.0000000
        k(   13) = (   0.2500000  -0.2500000   0.2500000), wk =   0.0625000
        k(   14) = (   1.0000000  -0.5000000   1.0000000), wk =   0.0000000
        k(   15) = (  -0.2500000  -0.7500000   0.2500000), wk =   0.1250000
        k(   16) = (   0.5000000  -1.0000000   1.0000000), wk =   0.0000000
        k(   17) = (  -0.2500000   0.7500000  -0.2500000), wk =   0.0625000
        k(   18) = (   0.5000000   0.5000000   0.5000000), wk =   0.0000000
        k(   19) = (  -0.2500000  -0.2500000   0.7500000), wk =   0.1250000
        k(   20) = (   0.5000000  -0.5000000   1.5000000), wk =   0.0000000
        k(   21) = (   0.2500000  -0.2500000  -0.7500000), wk =   0.1250000
        k(   22) = (   1.0000000  -0.5000000   0.0000000), wk =   0.0000000
        k(   23) = (  -0.7500000   0.2500000  -0.2500000), wk =   0.1250000
        k(   24) = (   0.0000000   0.0000000   0.5000000), wk =   0.0000000
        k(   25) = (   0.2500000   0.7500000   0.2500000), wk =   0.0625000
        k(   26) = (   1.0000000   0.5000000   1.0000000), wk =   0.0000000
        k(   27) = (  -0.2500000  -0.2500000  -0.7500000), wk =   0.1250000
        k(   28) = (   0.5000000  -0.5000000   0.0000000), wk =   0.0000000
        k(   29) = (   0.2500000   0.2500000  -0.7500000), wk =   0.1250000
        k(   30) = (   1.0000000   0.0000000   0.0000000), wk =   0.0000000
        k(   31) = (   0.2500000  -0.2500000   0.7500000), wk =   0.1250000
        k(   32) = (   1.0000000  -0.5000000   1.5000000), wk =   0.0000000
        k(   33) = (  -0.2500000   0.2500000   0.7500000), wk =   0.1250000
        k(   34) = (   0.5000000   0.0000000   1.5000000), wk =   0.0000000
        k(   35) = (  -0.2500000   0.7500000   0.2500000), wk =   0.1250000
        k(   36) = (   0.5000000   0.5000000   1.0000000), wk =   0.0000000
        k(   37) = (  -0.2500000  -0.7500000  -0.2500000), wk =   0.0625000
        k(   38) = (   0.5000000  -1.0000000   0.5000000), wk =   0.0000000
        k(   39) = (   0.2500000  -0.7500000   0.2500000), wk =   0.0625000
        k(   40) = (   1.0000000  -1.0000000   1.0000000), wk =   0.0000000

     Dense  grid:     2445 G-vectors     FFT dimensions: (  20,  20,  20)

     Largest allocated arrays     est. size (Mb)     dimensions
        Kohn-Sham Wavefunctions         0.00 Mb     (      20,    4)
        NL pseudopotentials             0.01 Mb     (      20,   26)
        Each V/rho on FFT grid          0.01 Mb     (     400)
        Each G-vector array             0.00 Mb     (     123)
        G-vector shells                 0.00 Mb     (      50)
     Largest temporary arrays     est. size (Mb)     dimensions
        Auxiliary wavefunctions         0.00 Mb     (      20,   16)
        Each subspace H/S matrix        0.00 Mb     (       5,    5)
        Each <psi_i|beta_j> matrix      0.00 Mb     (      26,    4)

     Check: negative/imaginary core charge=   -0.000006    0.000000

     The potential is recalculated from file :
     ./tmp/5/_ph0/alas.save/charge-density.dat

     Starting wfc are    8 atomic wfcs

     Band Structure Calculation
     Davidson diagonalization with overlap

     ethr =  1.25E-10,  avg # of iterations = 10.4

     total cpu time spent up to now is        0.6 secs

     End of band structure calculation

          k = 0.2500 0.2500 0.2500 (   311 PWs)   bands (ev):

    -6.4109   1.6676   4.7023   4.7023

          k = 1.0000 0.0000 1.0000 (   302 PWs)   bands (ev):

    -4.8810  -0.4647   2.8931   2.8931

          k = 0.2500 0.2500 0.7500 (   311 PWs)   bands (ev):

    -5.2348  -0.0673   2.2816   3.4865

          k = 1.0000 0.0000 1.5000 (   308 PWs)   bands (ev):

    -4.8417  -0.0750   1.7727   2.1500

          k =-0.2500-0.2500 0.2500 (   311 PWs)   bands (ev):

    -6.4109   1.6676   4.7023   4.7023

          k = 0.5000-0.5000 1.0000 (   315 PWs)   bands (ev):

    -5.5795   0.4698   2.1202   4.2563

          k =-0.2500 0.2500-0.2500 (   311 PWs)   bands (ev):

    -6.4109   1.6676   4.7023   4.7023

          k = 0.5000 0.0000 0.5000 (   315 PWs)   bands (ev):

    -5.5795   0.4698   2.1202   4.2563

          k =-0.2500-0.2500-0.2500 (   311 PWs)   bands (ev):

    -6.4109   1.6676   4.7023   4.7023

          k = 0.5000-0.5000 0.5000 (   302 PWs)   bands (ev):

    -5.4826  -0.6690   4.3426   4.3426

          k = 0.2500 0.2500-0.2500 (   311 PWs)   bands (ev):

    -6.4109   1.6676   4.7023   4.7023

          k = 1.0000 0.0000 0.5000 (   308 PWs)   bands (ev):

    -4.8417  -0.0750   1.7727   2.1500

          k = 0.2500-0.2500 0.2500 (   311 PWs)   bands (ev):

    -6.4109   1.6676   4.7023   4.7023

          k = 1.0000-0.5000 1.0000 (   311 PWs)   bands (ev):

    -6.1966   1.9061   3.7697   3.7697

          k =-0.2500-0.7500 0.2500 (   311 PWs)   bands (ev):

    -5.2348  -0.0673   2.2816   3.4865

          k = 0.5000-1.0000 1.0000 (   311 PWs)   bands (ev):

    -6.1966   1.9061   3.7697   3.7697

          k =-0.2500 0.7500-0.2500 (   311 PWs)   bands (ev):

    -5.2348  -0.0673   2.2816   3.4865

          k = 0.5000 0.5000 0.5000 (   302 PWs)   bands (ev):

    -5.4826  -0.6690   4.3426   4.3426

          k =-0.2500-0.2500 0.7500 (   311 PWs)   bands (ev):

    -5.2348  -0.0673   2.2816   3.4865

          k = 0.5000-0.5000 1.5000 (   302 PWs)   bands (ev):

    -5.4826  -0.6690   4.3426   4.3426

          k = 0.2500-0.2500-0.7500 (   311 PWs)   bands (ev):

    -5.2348  -0.0673   2.2816   3.4865

          k = 1.0000-0.5000 0.0000 (   308 PWs)   bands (ev):

    -4.8417  -0.0750   1.7727   2.1500

          k =-0.7500 0.2500-0.2500 (   311 PWs)   bands (ev):

    -5.2348  -0.0673   2.2816   3.4865

          k = 0.0000 0.0000 0.5000 (   311 PWs)   bands (ev):

    -6.1966   1.9061   3.7697   3.7697

          k = 0.2500 0.7500 0.2500 (   311 PWs)   bands (ev):

    -5.2348  -0.0673   2.2816   3.4865

          k = 1.0000 0.5000 1.0000 (   311 PWs)   bands (ev):

    -6.1966   1.9061   3.7697   3.7697

          k =-0.2500-0.2500-0.7500 (   311 PWs)   bands (ev):

    -5.2348  -0.0673   2.2816   3.4865

          k = 0.5000-0.5000 0.0000 (   315 PWs)   bands (ev):

    -5.5795   0.4698   2.1202   4.2563

          k = 0.2500 0.2500-0.7500 (   311 PWs)   bands (ev):

    -5.2348  -0.0673   2.2816   3.4865

          k = 1.0000 0.0000 0.0000 (   302 PWs)   bands (ev):

    -4.8810  -0.4647   2.8931   2.8931

          k = 0.2500-0.2500 0.7500 (   311 PWs)   bands (ev):

    -5.2348  -0.0673   2.2816   3.4865

          k = 1.0000-0.5000 1.5000 (   315 PWs)   bands (ev):

    -5.5795   0.4698   2.1202   4.2563

          k =-0.2500 0.2500 0.7500 (   311 PWs)   bands (ev):

    -5.2348  -0.0673   2.2816   3.4865

          k = 0.5000 0.0000 1.5000 (   315 PWs)   bands (ev):

    -5.5795   0.4698   2.1202   4.2563

          k =-0.2500 0.7500 0.2500 (   311 PWs)   bands (ev):

    -5.2348  -0.0673   2.2816   3.4865

          k = 0.5000 0.5000 1.0000 (   315 PWs)   bands (ev):

    -5.5795   0.4698   2.1202   4.2563

          k =-0.2500-0.7500-0.2500 (   311 PWs)   bands (ev):

    -5.2348  -0.0673   2.2816   3.4865

          k = 0.5000-1.0000 0.5000 (   315 PWs)   bands (ev):

    -5.5795   0.4698   2.1202   4.2563

          k = 0.2500-0.7500 0.2500 (   311 PWs)   bands (ev):

    -5.2348  -0.0673   2.2816   3.4865

          k = 1.0000-1.0000 1.0000 (   331 PWs)   bands (ev):

    -7.0321   5.2086   5.2086   5.2086

     highest occupied level (ev):     5.2086

     Writing output data file alas.save

                                                                                

     bravais-lattice index     =            2
     lattice parameter (alat)  =      10.5000  a.u.
     unit-cell volume          =     289.4062 (a.u.)^3
     number of atoms/cell      =            2
     number of atomic types    =            2
     kinetic-energy cut-off    =      16.0000  Ry
     charge density cut-off    =      64.0000  Ry
     convergence threshold     =      1.0E-12
     beta                      =       0.7000
     number of iterations used =            4
     Exchange-correlation      = LDA ( 1  1  0  0 0 0)


     celldm(1)=   10.50000  celldm(2)=    0.00000  celldm(3)=    0.00000
     celldm(4)=    0.00000  celldm(5)=    0.00000  celldm(6)=    0.00000

     crystal axes: (cart. coord. in units of alat)
               a(1) = ( -0.5000  0.0000  0.5000 )  
               a(2) = (  0.0000  0.5000  0.5000 )  
               a(3) = ( -0.5000  0.5000  0.0000 )  

     reciprocal axes: (cart. coord. in units 2 pi/alat)
               b(1) = ( -1.0000 -1.0000  1.0000 )  
               b(2) = (  1.0000  1.0000  1.0000 )  
               b(3) = ( -1.0000  1.0000 -1.0000 )  


     Atoms inside the unit cell: 

     Cartesian axes

     site n.  atom      mass           positions (alat units)
        1     Al  26.9800   tau(    1) = (    0.00000    0.00000    0.00000  )
        2     As  74.9200   tau(    2) = (    0.25000    0.25000    0.25000  )

     Computing dynamical matrix for 
                    q = (   0.7500000  -0.2500000   0.7500000 )
 
      2 Sym.Ops. (no q -> -q+G )


     G cutoff =  178.7306  (    123 G-vectors)     FFT grid: ( 20, 20, 20)
     number of k points=    40

     PseudoPot. # 1 for Al read from file:
     /home/cgduan/fyw/vaspwork/BaPd2As2/I4mmm/pwscf-pbe/lambda/example/Al.pz-n-rrkjus_psl.1.0.0.UPF
     MD5 check sum: f5695b695079f854d95bbc9af2522990
     Pseudo is Ultrasoft + core correction, Zval =  3.0
     Generated using "atomic" code by A. Dal Corso  v.5.4.0
     Using radial grid of 1135 points,  6 beta functions with: 
                l(1) =   0
                l(2) =   0
                l(3) =   1
                l(4) =   1
                l(5) =   2
                l(6) =   2
     Q(r) pseudized with 0 coefficients 


     PseudoPot. # 2 for As read from file:
     /home/cgduan/fyw/vaspwork/BaPd2As2/I4mmm/pwscf-pbe/lambda/example/As.pz-n-rrkjus_psl.1.0.0.UPF
     MD5 check sum: c8743154813d3906a91a0b6d88773858
     Pseudo is Ultrasoft + core correction, Zval =  5.0
     Generated using "atomic" code by A. Dal Corso  v.5.4.0
     Using radial grid of 1209 points,  4 beta functions with: 
                l(1) =   0
                l(2) =   0
                l(3) =   1
                l(4) =   1
     Q(r) pseudized with 0 coefficients 


     Mode symmetry, C_s (m)     point group:


     Atomic displacements:
     There are   6 irreducible representations

     Representation     1      1 modes -A'  To be done

     Representation     2      1 modes -A'  To be done

     Representation     3      1 modes -A'  To be done

     Representation     4      1 modes -A'  To be done

     Representation     5      1 modes -A''  To be done

     Representation     6      1 modes -A''  To be done



     Alpha used in Ewald sum =   0.7000
     PHONON       :     2.34s CPU         6.54s WALL



     Representation #  1 mode #   1

     Self-consistent Calculation

      iter #   1 total cpu time :     6.7 secs   av.it.:   6.1
      thresh= 1.000E-02 alpha_mix =  0.700 |ddv_scf|^2 =  1.014E-04

      iter #   2 total cpu time :     6.9 secs   av.it.:   8.7
      thresh= 1.007E-03 alpha_mix =  0.700 |ddv_scf|^2 =  2.204E-04

      iter #   3 total cpu time :     7.1 secs   av.it.:   7.9
      thresh= 1.485E-03 alpha_mix =  0.700 |ddv_scf|^2 =  8.616E-07

      iter #   4 total cpu time :     7.3 secs   av.it.:   8.7
      thresh= 9.282E-05 alpha_mix =  0.700 |ddv_scf|^2 =  2.346E-08

      iter #   5 total cpu time :     7.4 secs   av.it.:   8.8
      thresh= 1.532E-05 alpha_mix =  0.700 |ddv_scf|^2 =  3.709E-09

      iter #   6 total cpu time :     7.6 secs   av.it.:   8.7
      thresh= 6.090E-06 alpha_mix =  0.700 |ddv_scf|^2 =  5.788E-11

      iter #   7 total cpu time :     7.8 secs   av.it.:   8.7
      thresh= 7.608E-07 alpha_mix =  0.700 |ddv_scf|^2 =  8.809E-13

     End of self-consistent calculation

     Convergence has been achieved 


     Representation #  2 mode #   2

     Self-consistent Calculation

      iter #   1 total cpu time :     8.1 secs   av.it.:   5.5
      thresh= 1.000E-02 alpha_mix =  0.700 |ddv_scf|^2 =  3.098E-05

      iter #   2 total cpu time :     8.2 secs   av.it.:   8.8
      thresh= 5.566E-04 alpha_mix =  0.700 |ddv_scf|^2 =  6.341E-05

      iter #   3 total cpu time :     8.5 secs   av.it.:   7.9
      thresh= 7.963E-04 alpha_mix =  0.700 |ddv_scf|^2 =  2.399E-07

      iter #   4 total cpu time :     8.7 secs   av.it.:   8.4
      thresh= 4.898E-05 alpha_mix =  0.700 |ddv_scf|^2 =  6.445E-09

      iter #   5 total cpu time :     8.8 secs   av.it.:   8.7
      thresh= 8.028E-06 alpha_mix =  0.700 |ddv_scf|^2 =  8.191E-10

      iter #   6 total cpu time :     8.9 secs   av.it.:   8.7
      thresh= 2.862E-06 alpha_mix =  0.700 |ddv_scf|^2 =  2.312E-11

      iter #   7 total cpu time :     9.1 secs   av.it.:   8.8
      thresh= 4.808E-07 alpha_mix =  0.700 |ddv_scf|^2 =  6.474E-13

     End of self-consistent calculation

     Convergence has been achieved 


     Representation #  3 mode #   3

     Self-consistent Calculation

      iter #   1 total cpu time :     9.6 secs   av.it.:   6.2
      thresh= 1.000E-02 alpha_mix =  0.700 |ddv_scf|^2 =  1.365E-04

      iter #   2 total cpu time :     9.7 secs   av.it.:   8.8
      thresh= 1.169E-03 alpha_mix =  0.700 |ddv_scf|^2 =  2.935E-04

      iter #   3 total cpu time :     9.9 secs   av.it.:   7.8
      thresh= 1.713E-03 alpha_mix =  0.700 |ddv_scf|^2 =  9.572E-07

      iter #   4 total cpu time :    10.0 secs   av.it.:   8.7
      thresh= 9.784E-05 alpha_mix =  0.700 |ddv_scf|^2 =  2.870E-08

      iter #   5 total cpu time :    10.1 secs   av.it.:   8.8
      thresh= 1.694E-05 alpha_mix =  0.700 |ddv_scf|^2 =  3.614E-09

      iter #   6 total cpu time :    10.3 secs   av.it.:   8.7
      thresh= 6.011E-06 alpha_mix =  0.700 |ddv_scf|^2 =  1.029E-10

      iter #   7 total cpu time :    10.6 secs   av.it.:   8.6
      thresh= 1.014E-06 alpha_mix =  0.700 |ddv_scf|^2 =  2.235E-12

      iter #   8 total cpu time :    11.0 secs   av.it.:   8.6
      thresh= 1.495E-07 alpha_mix =  0.700 |ddv_scf|^2 =  1.652E-12

      iter #   9 total cpu time :    11.1 secs   av.it.:   8.1
      thresh= 1.285E-07 alpha_mix =  0.700 |ddv_scf|^2 =  3.165E-14

     End of self-consistent calculation

     Convergence has been achieved 


     Representation #  4 mode #   4

     Self-consistent Calculation

      iter #   1 total cpu time :    11.5 secs   av.it.:   5.2
      thresh= 1.000E-02 alpha_mix =  0.700 |ddv_scf|^2 =  9.060E-06

      iter #   2 total cpu time :    11.6 secs   av.it.:   8.9
      thresh= 3.010E-04 alpha_mix =  0.700 |ddv_scf|^2 =  1.113E-05

      iter #   3 total cpu time :    12.2 secs   av.it.:   8.2
      thresh= 3.336E-04 alpha_mix =  0.700 |ddv_scf|^2 =  3.516E-07

      iter #   4 total cpu time :    12.5 secs   av.it.:   8.3
      thresh= 5.929E-05 alpha_mix =  0.700 |ddv_scf|^2 =  5.401E-09

      iter #   5 total cpu time :    12.7 secs   av.it.:   8.8
      thresh= 7.349E-06 alpha_mix =  0.700 |ddv_scf|^2 =  5.410E-10

      iter #   6 total cpu time :    12.9 secs   av.it.:   8.7
      thresh= 2.326E-06 alpha_mix =  0.700 |ddv_scf|^2 =  6.414E-12

      iter #   7 total cpu time :    13.1 secs   av.it.:   8.8
      thresh= 2.533E-07 alpha_mix =  0.700 |ddv_scf|^2 =  2.525E-13

     End of self-consistent calculation

     Convergence has been achieved 


     Representation #  5 mode #   5

     Self-consistent Calculation

      iter #   1 total cpu time :    13.6 secs   av.it.:   4.7
      thresh= 1.000E-02 alpha_mix =  0.700 |ddv_scf|^2 =  1.029E-06

      iter #   2 total cpu time :    13.8 secs   av.it.:   8.4
      thresh= 1.015E-04 alpha_mix =  0.700 |ddv_scf|^2 =  1.497E-07

      iter #   3 total cpu time :    13.9 secs   av.it.:   8.1
      thresh= 3.870E-05 alpha_mix =  0.700 |ddv_scf|^2 =  2.982E-09

      iter #   4 total cpu time :    14.1 secs   av.it.:   8.0
      thresh= 5.460E-06 alpha_mix =  0.700 |ddv_scf|^2 =  3.880E-12

      iter #   5 total cpu time :    14.2 secs   av.it.:   8.7
      thresh= 1.970E-07 alpha_mix =  0.700 |ddv_scf|^2 =  9.203E-14

     End of self-consistent calculation

     Convergence has been achieved 


     Representation #  6 mode #   6

     Self-consistent Calculation

      iter #   1 total cpu time :    14.5 secs   av.it.:   5.8
      thresh= 1.000E-02 alpha_mix =  0.700 |ddv_scf|^2 =  7.004E-06

      iter #   2 total cpu time :    14.7 secs   av.it.:   8.5
      thresh= 2.647E-04 alpha_mix =  0.700 |ddv_scf|^2 =  8.483E-07

      iter #   3 total cpu time :    14.8 secs   av.it.:   8.2
      thresh= 9.211E-05 alpha_mix =  0.700 |ddv_scf|^2 =  1.521E-08

      iter #   4 total cpu time :    15.0 secs   av.it.:   8.3
      thresh= 1.233E-05 alpha_mix =  0.700 |ddv_scf|^2 =  9.309E-11

      iter #   5 total cpu time :    15.2 secs   av.it.:   8.6
      thresh= 9.648E-07 alpha_mix =  0.700 |ddv_scf|^2 =  1.075E-12

      iter #   6 total cpu time :    15.3 secs   av.it.:   8.3
      thresh= 1.037E-07 alpha_mix =  0.700 |ddv_scf|^2 =  1.231E-14

     End of self-consistent calculation

     Convergence has been achieved 
 
     Number of q in the star =   12
     List of q in the star:
          1   0.750000000  -0.250000000   0.750000000
          2  -0.750000000  -0.750000000  -0.250000000
          3  -0.750000000   0.750000000   0.250000000
          4  -0.750000000   0.250000000   0.750000000
          5   0.750000000   0.250000000  -0.750000000
          6   0.750000000   0.750000000  -0.250000000
          7   0.750000000  -0.750000000   0.250000000
          8  -0.250000000   0.750000000   0.750000000
          9   0.250000000   0.750000000  -0.750000000
         10  -0.250000000  -0.750000000  -0.750000000
         11   0.250000000  -0.750000000   0.750000000
         12  -0.750000000  -0.250000000  -0.750000000
     In addition there is the -q list: 
          1  -0.750000000   0.250000000  -0.750000000
          2   0.750000000   0.750000000   0.250000000
          3   0.750000000  -0.750000000  -0.250000000
          4   0.750000000  -0.250000000  -0.750000000
          5  -0.750000000  -0.250000000   0.750000000
          6  -0.750000000  -0.750000000   0.250000000
          7  -0.750000000   0.750000000  -0.250000000
          8   0.250000000  -0.750000000  -0.750000000
          9  -0.250000000  -0.750000000   0.750000000
         10   0.250000000   0.750000000   0.750000000
         11  -0.250000000   0.750000000  -0.750000000
         12   0.750000000   0.250000000   0.750000000

     Diagonalizing the dynamical matrix

     q = (    0.750000000  -0.250000000   0.750000000 ) 

 **************************************************************************
     freq (    1) =       2.463550 [THz] =      82.175195 [cm-1]
     freq (    2) =       3.683227 [THz] =     122.859224 [cm-1]
     freq (    3) =       5.912950 [THz] =     197.234789 [cm-1]
     freq (    4) =      10.699517 [THz] =     356.897480 [cm-1]
     freq (    5) =      10.717490 [THz] =     357.496971 [cm-1]
     freq (    6) =      11.554811 [THz] =     385.426999 [cm-1]
 **************************************************************************

     Mode symmetry, C_s (m)     point group:

     freq (  1 -  1) =         82.2  [cm-1]   --> A''                
     freq (  2 -  2) =        122.9  [cm-1]   --> A'                 
     freq (  3 -  3) =        197.2  [cm-1]   --> A'                 
     freq (  4 -  4) =        356.9  [cm-1]   --> A''                
     freq (  5 -  5) =        357.5  [cm-1]   --> A'                 
     freq (  6 -  6) =        385.4  [cm-1]   --> A'                 
 
     init_run     :      0.04s CPU      0.21s WALL (       1 calls)
     electrons    :      0.35s CPU      0.43s WALL (       1 calls)

     Called by init_run:
     wfcinit      :      0.00s CPU      0.17s WALL (       1 calls)
     potinit      :      0.00s CPU      0.00s WALL (       1 calls)

     Called by electrons:
     c_bands      :      0.35s CPU      0.42s WALL (       1 calls)
     v_of_rho     :      0.00s CPU      0.00s WALL (       2 calls)
     newd         :      0.00s CPU      0.00s WALL (       2 calls)

     Called by c_bands:
     init_us_2    :      0.01s CPU      0.01s WALL (    1060 calls)
     cegterg      :      0.17s CPU      0.19s WALL (      40 calls)

     Called by sum_band:

     Called by *egterg:
     h_psi        :      0.28s CPU      0.34s WALL (     497 calls)
     s_psi        :      0.12s CPU      0.12s WALL (   16779 calls)
     g_psi        :      0.00s CPU      0.00s WALL (     417 calls)
     cdiaghg      :      0.03s CPU      0.04s WALL (     457 calls)

     Called by h_psi:
     add_vuspsi   :      0.06s CPU      0.07s WALL (    8228 calls)

     General routines
     calbec       :      0.30s CPU      0.38s WALL (   18479 calls)
     fft          :      0.02s CPU      0.09s WALL (     307 calls)
     ffts         :      0.10s CPU      0.13s WALL (     162 calls)
     fftw         :      2.14s CPU      2.40s WALL (   72862 calls)
     davcio       :      0.01s CPU      0.07s WALL (    4631 calls)
 
     Parallel routines
     fft_scatter  :      1.59s CPU      1.82s WALL (   73331 calls)
 
     PHONON       :     7.98s CPU        15.71s WALL

     INITIALIZATION: 
     phq_setup    :      0.00s CPU      0.02s WALL (       1 calls)
     phq_init     :      0.07s CPU      0.08s WALL (       1 calls)
 
     phq_init     :      0.07s CPU      0.08s WALL (       1 calls)
     set_drhoc    :      0.01s CPU      0.01s WALL (       3 calls)
     init_vloc    :      0.00s CPU      0.00s WALL (       2 calls)
     init_us_1    :      0.07s CPU      0.11s WALL (       2 calls)
     newd         :      0.00s CPU      0.00s WALL (       2 calls)
     dvanqq       :      0.00s CPU      0.00s WALL (       1 calls)
     drho         :      0.03s CPU      0.04s WALL (       1 calls)
 
     DYNAMICAL MATRIX:
     dynmat0      :      0.02s CPU      0.03s WALL (       1 calls)
     phqscf       :      5.60s CPU      9.02s WALL (       1 calls)
     dynmatrix    :      0.02s CPU      0.05s WALL (       1 calls)
 
     phqscf       :      5.60s CPU      9.02s WALL (       1 calls)
     solve_linter :      5.57s CPU      8.70s WALL (       6 calls)
     drhodv       :      0.02s CPU      0.02s WALL (       6 calls)
 
     dynmat0      :      0.02s CPU      0.03s WALL (       1 calls)
     dynmat_us    :      0.01s CPU      0.01s WALL (       1 calls)
     d2ionq       :      0.00s CPU      0.00s WALL (       1 calls)
     dynmatcc     :      0.01s CPU      0.01s WALL (       1 calls)
 
     dynmat_us    :      0.01s CPU      0.01s WALL (       1 calls)
     addusdynmat  :      0.00s CPU      0.00s WALL (       1 calls)
 
     phqscf       :      5.60s CPU      9.02s WALL (       1 calls)
     solve_linter :      5.57s CPU      8.70s WALL (       6 calls)
 
     solve_linter :      5.57s CPU      8.70s WALL (       6 calls)
     dvqpsi_us    :      0.15s CPU      0.18s WALL (     120 calls)
     ortho        :      0.04s CPU      0.05s WALL (     820 calls)
     cgsolve      :      2.49s CPU      2.95s WALL (     820 calls)
     incdrhoscf   :      0.21s CPU      0.24s WALL (     820 calls)
     addusddens   :      0.03s CPU      0.04s WALL (      47 calls)
     vpsifft      :      0.16s CPU      0.19s WALL (     700 calls)
     dv_of_drho   :      0.01s CPU      0.00s WALL (      41 calls)
     mix_pot      :      0.05s CPU      0.53s WALL (      41 calls)
     psymdvscf    :      0.04s CPU      0.05s WALL (      41 calls)
     newdq        :      0.04s CPU      0.04s WALL (      41 calls)
     adddvscf     :      0.01s CPU      0.01s WALL (     700 calls)
     drhodvus     :      0.00s CPU      0.00s WALL (       6 calls)
 
     dvqpsi_us    :      0.15s CPU      0.18s WALL (     120 calls)
     dvqpsi_us_on :      0.02s CPU      0.02s WALL (     120 calls)
 
     cgsolve      :      2.49s CPU      2.95s WALL (     820 calls)
     ch_psi       :      2.27s CPU      2.67s WALL (    7731 calls)
 
     ch_psi       :      2.27s CPU      2.67s WALL (    7731 calls)
     h_psiq       :      1.93s CPU      2.23s WALL (    7731 calls)
     last         :      0.31s CPU      0.40s WALL (    7731 calls)
 
     h_psiq       :      1.93s CPU      2.23s WALL (    7731 calls)
     firstfft     :      0.83s CPU      0.90s WALL (   27601 calls)
     secondfft    :      0.78s CPU      0.90s WALL (   27601 calls)
     add_vuspsi   :      0.06s CPU      0.07s WALL (    8228 calls)
 
     incdrhoscf   :      0.21s CPU      0.24s WALL (     820 calls)
     addusdbec    :      0.03s CPU      0.03s WALL (     940 calls)
 
     drhodvus     :      0.00s CPU      0.00s WALL (       6 calls)
 
      General routines
     calbec       :      0.30s CPU      0.38s WALL (   18479 calls)
     fft          :      0.02s CPU      0.09s WALL (     307 calls)
     ffts         :      0.10s CPU      0.13s WALL (     162 calls)
     fftw         :      2.14s CPU      2.40s WALL (   72862 calls)
     davcio       :      0.01s CPU      0.07s WALL (    4631 calls)
     write_rec    :      0.05s CPU      1.77s WALL (      47 calls)
 
 
     PHONON       :     7.98s CPU        15.71s WALL

 
   This run was terminated on:  15:14:31  23Jan2018            

=------------------------------------------------------------------------------=
   JOB DONE.
=------------------------------------------------------------------------------=
